 Entering Gaussian System, Link 0=g16
 Initial command:
 /opt/software/gaussian/g16.c01/l1.exe "/localscratch/nrob.28214130.0/Gau-48280.inp" -scrdir="/localscratch/nrob.28214130.0/"
 Entering Link 1 = /opt/software/gaussian/g16.c01/l1.exe PID=     48311.
  
 Copyright (c) 1988-2019, Gaussian, Inc.  All Rights Reserved.
  
 This is part of the Gaussian(R) 16 program.  It is based on
 the Gaussian(R) 09 system (copyright 2009, Gaussian, Inc.),
 the Gaussian(R) 03 system (copyright 2003, Gaussian, Inc.),
 the Gaussian(R) 98 system (copyright 1998, Gaussian, Inc.),
 the Gaussian(R) 94 system (copyright 1995, Gaussian, Inc.),
 the Gaussian 92(TM) system (copyright 1992, Gaussian, Inc.),
 the Gaussian 90(TM) system (copyright 1990, Gaussian, Inc.),
 the Gaussian 88(TM) system (copyright 1988, Gaussian, Inc.),
 the Gaussian 86(TM) system (copyright 1986, Carnegie Mellon
 University), and the Gaussian 82(TM) system (copyright 1983,
 Carnegie Mellon University). Gaussian is a federally registered
 trademark of Gaussian, Inc.
  
 This software contains proprietary and confidential information,
 including trade secrets, belonging to Gaussian, Inc.
  
 This software is provided under written license and may be
 used, copied, transmitted, or stored only in accord with that
 written license.
  
 The following legend is applicable only to US Government
 contracts under FAR:
  
                    RESTRICTED RIGHTS LEGEND
  
 Use, reproduction and disclosure by the US Government is
 subject to restrictions as set forth in subparagraphs (a)
 and (c) of the Commercial Computer Software - Restricted
 Rights clause in FAR 52.227-19.
  
 Gaussian, Inc.
 340 Quinnipiac St., Bldg. 40, Wallingford CT 06492
  
  
 ---------------------------------------------------------------
 Warning -- This program may not be used in any manner that
 competes with the business of Gaussian, Inc. or will provide
 assistance to any competitor of Gaussian, Inc.  The licensee
 of this program is prohibited from giving any competitor of
 Gaussian, Inc. access to this program.  By using this program,
 the user acknowledges that Gaussian, Inc. is engaged in the
 business of creating and licensing software in the field of
 computational chemistry and represents and warrants to the
 licensee that it is not a competitor of Gaussian, Inc. and that
 it will not use this program in any manner prohibited above.
 ---------------------------------------------------------------
  

 Cite this work as:
 Gaussian 16, Revision C.01,
 M. J. Frisch, G. W. Trucks, H. B. Schlegel, G. E. Scuseria, 
 M. A. Robb, J. R. Cheeseman, G. Scalmani, V. Barone, 
 G. A. Petersson, H. Nakatsuji, X. Li, M. Caricato, A. V. Marenich, 
 J. Bloino, B. G. Janesko, R. Gomperts, B. Mennucci, H. P. Hratchian, 
 J. V. Ortiz, A. F. Izmaylov, J. L. Sonnenberg, D. Williams-Young, 
 F. Ding, F. Lipparini, F. Egidi, J. Goings, B. Peng, A. Petrone, 
 T. Henderson, D. Ranasinghe, V. G. Zakrzewski, J. Gao, N. Rega, 
 G. Zheng, W. Liang, M. Hada, M. Ehara, K. Toyota, R. Fukuda, 
 J. Hasegawa, M. Ishida, T. Nakajima, Y. Honda, O. Kitao, H. Nakai, 
 T. Vreven, K. Throssell, J. A. Montgomery, Jr., J. E. Peralta, 
 F. Ogliaro, M. J. Bearpark, J. J. Heyd, E. N. Brothers, K. N. Kudin, 
 V. N. Staroverov, T. A. Keith, R. Kobayashi, J. Normand, 
 K. Raghavachari, A. P. Rendell, J. C. Burant, S. S. Iyengar, 
 J. Tomasi, M. Cossi, J. M. Millam, M. Klene, C. Adamo, R. Cammi, 
 J. W. Ochterski, R. L. Martin, K. Morokuma, O. Farkas, 
 J. B. Foresman, and D. J. Fox, Gaussian, Inc., Wallingford CT, 2019.
 
 ******************************************
 Gaussian 16:  ES64L-G16RevC.01  3-Jul-2019
                24-Mar-2025 
 ******************************************
 -------------------------------------------
 #P B3LYP/Def2TZVP EmpiricalDispersion=GD3BJ
 -------------------------------------------
 1/38=1,172=1/1;
 2/12=2,17=6,18=5,40=1/2;
 3/5=44,7=101,11=2,25=1,30=1,74=-5,124=41/1,2,3;
 4//1;
 5/5=2,38=5/2;
 6/7=2,8=2,9=2,10=2,28=1/1;
 99/5=1,9=1/99;
 Leave Link    1 at Mon Mar 24 14:05:34 2025, MaxMem=           0 cpu:               0.1 elap:               0.1
 (Enter /opt/software/gaussian/g16.c01/l101.exe)
 -----
 water
 -----
 Symbolic Z-matrix:
 Charge =  0 Multiplicity = 1
 O                     0.        0.12023   0. 
 H                     0.75703  -0.48094   0. 
 H                    -0.75703  -0.48094   0. 
 
 ITRead=  0  0  0
 MicOpt= -1 -1 -1
 NAtoms=      3 NQM=        3 NQMF=       0 NMMI=      0 NMMIF=      0
                NMic=       0 NMicF=      0.
                    Isotopes and Nuclear Properties:
 (Nuclear quadrupole moments (NQMom) in fm**2, nuclear magnetic moments (NMagM)
  in nuclear magnetons)

  Atom         1           2           3
 IAtWgt=          16           1           1
 AtmWgt=  15.9949146   1.0078250   1.0078250
 NucSpn=           0           1           1
 AtZEff=  -0.0000000  -0.0000000  -0.0000000
 NQMom=    0.0000000   0.0000000   0.0000000
 NMagM=    0.0000000   2.7928460   2.7928460
 AtZNuc=   8.0000000   1.0000000   1.0000000
 Leave Link  101 at Mon Mar 24 14:05:35 2025, MaxMem=   104857600 cpu:               0.2 elap:               0.2
 (Enter /opt/software/gaussian/g16.c01/l202.exe)
                          Input orientation:                          
 ---------------------------------------------------------------------
 Center     Atomic      Atomic             Coordinates (Angstroms)
 Number     Number       Type             X           Y           Z
 ---------------------------------------------------------------------
      1          8           0        0.000000    0.120234    0.000000
      2          1           0        0.757025   -0.480936    0.000000
      3          1           0       -0.757025   -0.480936    0.000000
 ---------------------------------------------------------------------
                    Distance matrix (angstroms):
                    1          2          3
     1  O    0.000000
     2  H    0.966691   0.000000
     3  H    0.966691   1.514050   0.000000
 Stoichiometry    H2O
 Framework group  C2V[C2(O),SGV(H2)]
 Deg. of freedom     2
 Full point group                 C2V     NOp   4
 Largest Abelian subgroup         C2V     NOp   4
 Largest concise Abelian subgroup C2      NOp   2
                         Standard orientation:                         
 ---------------------------------------------------------------------
 Center     Atomic      Atomic             Coordinates (Angstroms)
 Number     Number       Type             X           Y           Z
 ---------------------------------------------------------------------
      1          8           0        0.000000    0.000000    0.120234
      2          1           0        0.000000    0.757025   -0.480936
      3          1           0       -0.000000   -0.757025   -0.480936
 ---------------------------------------------------------------------
 Rotational constants (GHZ):         781.1831450         437.5035860         280.4415758
 Leave Link  202 at Mon Mar 24 14:05:35 2025, MaxMem=   104857600 cpu:               0.0 elap:               0.0
 (Enter /opt/software/gaussian/g16.c01/l301.exe)
 Standard basis: def2TZVP (5D, 7F)
 Ernie: Thresh=  0.10000D-02 Tol=  0.10000D-05 Strict=F.
 There are    22 symmetry adapted cartesian basis functions of A1  symmetry.
 There are     4 symmetry adapted cartesian basis functions of A2  symmetry.
 There are     9 symmetry adapted cartesian basis functions of B1  symmetry.
 There are    13 symmetry adapted cartesian basis functions of B2  symmetry.
 There are    19 symmetry adapted basis functions of A1  symmetry.
 There are     4 symmetry adapted basis functions of A2  symmetry.
 There are     8 symmetry adapted basis functions of B1  symmetry.
 There are    12 symmetry adapted basis functions of B2  symmetry.
    43 basis functions,    67 primitive gaussians,    48 cartesian basis functions
     5 alpha electrons        5 beta electrons
       nuclear repulsion energy         9.1080823733 Hartrees.
 IExCor=  402 DFT=T Ex+Corr=B3LYP ExCW=0 ScaHFX=  0.200000
 ScaDFX=  0.800000  0.720000  1.000000  0.810000 ScalE2=  1.000000  1.000000
 IRadAn=      5 IRanWt=     -1 IRanGd=            0 ICorTp=0 IEmpDi=141
 NAtoms=    3 NActive=    3 NUniq=    2 SFac= 2.25D+00 NAtFMM=   60 NAOKFM=F Big=F
 Integral buffers will be    131072 words long.
 Raffenetti 2 integral format.
 Two-electron integral symmetry is turned on.
 R6Disp:  Grimme-D3(BJ) Dispersion energy=       -0.0005739489 Hartrees.
 Nuclear repulsion after empirical dispersion term =        9.1075084244 Hartrees.
 Leave Link  301 at Mon Mar 24 14:05:35 2025, MaxMem=   104857600 cpu:               0.1 elap:               0.1
 (Enter /opt/software/gaussian/g16.c01/l302.exe)
 NPDir=0 NMtPBC=     1 NCelOv=     1 NCel=       1 NClECP=     1 NCelD=      1
         NCelK=      1 NCelE2=     1 NClLst=     1 CellRange=     0.0.
 One-electron integrals computed using PRISM.
 One-electron integral symmetry used in STVInt
   4 Symmetry operations used in ECPInt.
 ECPInt:  NShTT=     190 NPrTT=     556 LenC2=     191 LenP2D=     543.
 LDataN:  DoStor=T MaxTD1= 6 Len=  172
 NBasis=    43 RedAO= T EigKep=  8.63D-03  NBF=    19     4     8    12
 NBsUse=    43 1.00D-06 EigRej= -1.00D+00 NBFU=    19     4     8    12
 Precomputing XC quadrature grid using
 IXCGrd= 4 IRadAn=           5 IRanWt=          -1 IRanGd=           0 AccXCQ= 0.00D+00.
 Generated NRdTot=       0 NPtTot=           0 NUsed=           0 NTot=          32
 NSgBfM=    48    48    48    48    48 MxSgAt=     3 MxSgA2=     3.
 Leave Link  302 at Mon Mar 24 14:05:35 2025, MaxMem=   104857600 cpu:               0.2 elap:               0.2
 (Enter /opt/software/gaussian/g16.c01/l303.exe)
 DipDrv:  MaxL=1.
 Leave Link  303 at Mon Mar 24 14:05:35 2025, MaxMem=   104857600 cpu:               0.1 elap:               0.1
 (Enter /opt/software/gaussian/g16.c01/l401.exe)
 ExpMin= 1.03D-01 ExpMax= 2.70D+04 ExpMxC= 9.22D+02 IAcc=3 IRadAn=         5 AccDes= 0.00D+00
 Harris functional with IExCor=  402 and IRadAn=       5 diagonalized for initial guess.
 HarFok:  IExCor=  402 AccDes= 0.00D+00 IRadAn=         5 IDoV= 1 UseB2=F ITyADJ=14
 ICtDFT=  3500011 ScaDFX=  1.000000  1.000000  1.000000  1.000000
 FoFCou: FMM=F IPFlag=           0 FMFlag=      100000 FMFlg1=           0
         NFxFlg=           0 DoJE=T BraDBF=F KetDBF=T FulRan=T
         wScrn=  0.000000 ICntrl=       500 IOpCl=  0 I1Cent=   200000004 NGrid=           0
         NMat0=    1 NMatS0=      1 NMatT0=    0 NMatD0=    1 NMtDS0=    0 NMtDT0=    0
 Petite list used in FoFCou.
 Harris En= -76.4982303796922    
 JPrj=0 DoOrth=F DoCkMO=F.
 Initial guess orbital symmetries:
       Occupied  (A1) (A1) (B2) (A1) (B1)
       Virtual   (A1) (B2) (B2) (A1) (B1) (A1) (B2) (A1) (A1) (A2)
                 (B1) (B2) (A1) (B2) (A1) (B1) (A2) (B2) (A1) (B1)
                 (B2) (A1) (A1) (A1) (B2) (B1) (A1) (B1) (A2) (B2)
                 (B2) (A1) (B1) (A2) (A1) (A1) (B2) (A1)
 The electronic state of the initial guess is 1-A1.
 Leave Link  401 at Mon Mar 24 14:05:35 2025, MaxMem=   104857600 cpu:               0.2 elap:               0.2
 (Enter /opt/software/gaussian/g16.c01/l502.exe)
 Keep R1 ints in memory in symmetry-blocked form, NReq=2406577.
 FoFCou: FMM=F IPFlag=           0 FMFlag=           0 FMFlg1=           0
         NFxFlg=           0 DoJE=F BraDBF=F KetDBF=F FulRan=T
         wScrn=  0.000000 ICntrl=       600 IOpCl=  0 I1Cent=           0 NGrid=           0
         NMat0=    1 NMatS0=    946 NMatT0=    0 NMatD0=    1 NMtDS0=    0 NMtDT0=    0
 Petite list used in FoFCou.
 Closed shell SCF:
 Using DIIS extrapolation, IDIIS=  1040.
 NGot=   104857600 LenX=   104730128 LenY=   104727383
 Requested convergence on RMS density matrix=1.00D-08 within 128 cycles.
 Requested convergence on MAX density matrix=1.00D-06.
 Requested convergence on             energy=1.00D-06.
 No special actions if energy rises.
 Integral accuracy reduced to 1.0D-05 until final iterations.

 Cycle   1  Pass 0  IDiag  1:
 E= -76.3793263344548    
 DIIS: error= 6.83D-02 at cycle   1 NSaved=   1.
 NSaved= 1 IEnMin= 1 EnMin= -76.3793263344548     IErMin= 1 ErrMin= 6.83D-02
 ErrMax= 6.83D-02  0.00D+00 EMaxC= 1.00D-01 BMatC= 1.24D-01 BMatP= 1.24D-01
 IDIUse=3 WtCom= 3.17D-01 WtEn= 6.83D-01
 Coeff-Com:  0.100D+01
 Coeff-En:   0.100D+01
 Coeff:      0.100D+01
 Gap=     0.169 Goal=   None    Shift=    0.000
 GapD=    0.169 DampG=1.000 DampE=0.500 DampFc=0.5000 IDamp=-1.
 Damping current iteration by 5.00D-01
 RMSDP=1.06D-02 MaxDP=1.46D-01              OVMax= 2.15D-01

 Cycle   2  Pass 0  IDiag  1:
 E= -76.3982174981387     Delta-E=       -0.018891163684 Rises=F Damp=T
 DIIS: error= 2.45D-02 at cycle   2 NSaved=   2.
 NSaved= 2 IEnMin= 2 EnMin= -76.3982174981387     IErMin= 2 ErrMin= 2.45D-02
 ErrMax= 2.45D-02  0.00D+00 EMaxC= 1.00D-01 BMatC= 1.34D-02 BMatP= 1.24D-01
 IDIUse=3 WtCom= 7.55D-01 WtEn= 2.45D-01
 Coeff-Com:  0.238D+00 0.762D+00
 Coeff-En:   0.395D+00 0.605D+00
 Coeff:      0.276D+00 0.724D+00
 Gap=     0.312 Goal=   None    Shift=    0.000
 RMSDP=1.63D-03 MaxDP=3.05D-02 DE=-1.89D-02 OVMax= 1.32D-01

 Cycle   3  Pass 0  IDiag  1:
 E= -76.4631904248848     Delta-E=       -0.064972926746 Rises=F Damp=F
 DIIS: error= 3.95D-03 at cycle   3 NSaved=   3.
 NSaved= 3 IEnMin= 3 EnMin= -76.4631904248848     IErMin= 3 ErrMin= 3.95D-03
 ErrMax= 3.95D-03  0.00D+00 EMaxC= 1.00D-01 BMatC= 4.27D-04 BMatP= 1.34D-02
 IDIUse=3 WtCom= 9.61D-01 WtEn= 3.95D-02
 Coeff-Com:  0.467D-01-0.308D-01 0.984D+00
 Coeff-En:   0.000D+00 0.000D+00 0.100D+01
 Coeff:      0.448D-01-0.296D-01 0.985D+00
 Gap=     0.329 Goal=   None    Shift=    0.000
 RMSDP=1.97D-04 MaxDP=2.42D-03 DE=-6.50D-02 OVMax= 4.03D-03

 Cycle   4  Pass 0  IDiag  1:
 E= -76.4634426744988     Delta-E=       -0.000252249614 Rises=F Damp=F
 DIIS: error= 3.87D-04 at cycle   4 NSaved=   4.
 NSaved= 4 IEnMin= 4 EnMin= -76.4634426744988     IErMin= 4 ErrMin= 3.87D-04
 ErrMax= 3.87D-04  0.00D+00 EMaxC= 1.00D-01 BMatC= 4.94D-06 BMatP= 4.27D-04
 IDIUse=3 WtCom= 9.96D-01 WtEn= 3.87D-03
 Coeff-Com:  0.982D-02-0.220D-01 0.246D+00 0.766D+00
 Coeff-En:   0.000D+00 0.000D+00 0.000D+00 0.100D+01
 Coeff:      0.978D-02-0.219D-01 0.245D+00 0.767D+00
 Gap=     0.329 Goal=   None    Shift=    0.000
 RMSDP=1.88D-05 MaxDP=2.55D-04 DE=-2.52D-04 OVMax= 4.34D-04

 Cycle   5  Pass 0  IDiag  1:
 E= -76.4634456622322     Delta-E=       -0.000002987733 Rises=F Damp=F
 DIIS: error= 1.35D-04 at cycle   5 NSaved=   5.
 NSaved= 5 IEnMin= 5 EnMin= -76.4634456622322     IErMin= 5 ErrMin= 1.35D-04
 ErrMax= 1.35D-04  0.00D+00 EMaxC= 1.00D-01 BMatC= 4.02D-07 BMatP= 4.94D-06
 IDIUse=3 WtCom= 9.99D-01 WtEn= 1.35D-03
 Coeff-Com:  0.189D-02-0.328D-02 0.186D-01 0.655D-01 0.917D+00
 Coeff-En:   0.000D+00 0.000D+00 0.000D+00 0.000D+00 0.100D+01
 Coeff:      0.189D-02-0.328D-02 0.186D-01 0.654D-01 0.917D+00
 Gap=     0.329 Goal=   None    Shift=    0.000
 RMSDP=8.23D-06 MaxDP=1.11D-04 DE=-2.99D-06 OVMax= 1.53D-04

 Initial convergence to 1.0D-05 achieved.  Increase integral accuracy.
 Cycle   6  Pass 1  IDiag  1:
 E= -76.4634462704615     Delta-E=       -0.000000608229 Rises=F Damp=F
 DIIS: error= 3.56D-06 at cycle   1 NSaved=   1.
 NSaved= 1 IEnMin= 1 EnMin= -76.4634462704615     IErMin= 1 ErrMin= 3.56D-06
 ErrMax= 3.56D-06  0.00D+00 EMaxC= 1.00D-01 BMatC= 2.60D-10 BMatP= 2.60D-10
 IDIUse=1 WtCom= 1.00D+00 WtEn= 0.00D+00
 Coeff-Com:  0.100D+01
 Coeff:      0.100D+01
 Gap=     0.329 Goal=   None    Shift=    0.000
 RMSDP=8.23D-06 MaxDP=1.11D-04 DE=-6.08D-07 OVMax= 8.91D-06

 Cycle   7  Pass 1  IDiag  1:
 E= -76.4634462704075     Delta-E=        0.000000000054 Rises=F Damp=F
 DIIS: error= 4.17D-06 at cycle   2 NSaved=   2.
 NSaved= 2 IEnMin= 1 EnMin= -76.4634462704615     IErMin= 1 ErrMin= 3.56D-06
 ErrMax= 4.17D-06  0.00D+00 EMaxC= 1.00D-01 BMatC= 4.03D-10 BMatP= 2.60D-10
 IDIUse=1 WtCom= 1.00D+00 WtEn= 0.00D+00
 Coeff-Com:  0.561D+00 0.439D+00
 Coeff:      0.561D+00 0.439D+00
 Gap=     0.329 Goal=   None    Shift=    0.000
 RMSDP=2.36D-07 MaxDP=3.19D-06 DE= 5.40D-11 OVMax= 4.93D-06

 Cycle   8  Pass 1  IDiag  1:
 E= -76.4634462706656     Delta-E=       -0.000000000258 Rises=F Damp=F
 DIIS: error= 5.39D-07 at cycle   3 NSaved=   3.
 NSaved= 3 IEnMin= 3 EnMin= -76.4634462706656     IErMin= 3 ErrMin= 5.39D-07
 ErrMax= 5.39D-07  0.00D+00 EMaxC= 1.00D-01 BMatC= 9.81D-12 BMatP= 2.60D-10
 IDIUse=1 WtCom= 1.00D+00 WtEn= 0.00D+00
 Coeff-Com:  0.124D+00 0.166D+00 0.710D+00
 Coeff:      0.124D+00 0.166D+00 0.710D+00
 Gap=     0.329 Goal=   None    Shift=    0.000
 RMSDP=3.35D-08 MaxDP=3.39D-07 DE=-2.58D-10 OVMax= 7.88D-07

 Cycle   9  Pass 1  IDiag  1:
 E= -76.4634462706718     Delta-E=       -0.000000000006 Rises=F Damp=F
 DIIS: error= 7.50D-08 at cycle   4 NSaved=   4.
 NSaved= 4 IEnMin= 4 EnMin= -76.4634462706718     IErMin= 4 ErrMin= 7.50D-08
 ErrMax= 7.50D-08  0.00D+00 EMaxC= 1.00D-01 BMatC= 1.22D-13 BMatP= 9.81D-12
 IDIUse=1 WtCom= 1.00D+00 WtEn= 0.00D+00
 Coeff-Com: -0.971D-02-0.437D-02 0.895D-01 0.925D+00
 Coeff:     -0.971D-02-0.437D-02 0.895D-01 0.925D+00
 Gap=     0.329 Goal=   None    Shift=    0.000
 RMSDP=7.32D-09 MaxDP=8.69D-08 DE=-6.20D-12 OVMax= 1.83D-07

 SCF Done:  E(RB3LYP) =  -76.4634462707     A.U. after    9 cycles
            NFock=  9  Conv=0.73D-08     -V/T= 2.0040
 KE= 7.615528130545D+01 PE=-1.991066333305D+02 EE= 3.738039733003D+01
 Leave Link  502 at Mon Mar 24 14:05:36 2025, MaxMem=   104857600 cpu:               0.7 elap:               0.7
 (Enter /opt/software/gaussian/g16.c01/l601.exe)
 Copying SCF densities to generalized density rwf, IOpCl= 0 IROHF=0.

 **********************************************************************

            Population analysis using the SCF Density.

 **********************************************************************

 Orbital symmetries:
       Occupied  (A1) (A1) (B2) (A1) (B1)
       Virtual   (A1) (B2) (B2) (A1) (B1) (A1) (B2) (A1) (A1) (A2)
                 (B1) (B2) (A1) (B2) (A1) (B1) (A2) (B2) (A1) (B2)
                 (A1) (B1) (A1) (A1) (B2) (B1) (A1) (B1) (A2) (B2)
                 (B2) (A1) (B1) (A2) (A1) (A1) (B2) (A1)
 The electronic state is 1-A1.
 Alpha  occ. eigenvalues --  -19.12900  -1.01400  -0.53009  -0.39431  -0.31657
 Alpha virt. eigenvalues --    0.01263   0.08839   0.35198   0.40749   0.42444
 Alpha virt. eigenvalues --    0.43448   0.56678   0.59541   1.14867   1.18852
 Alpha virt. eigenvalues --    1.28699   1.52213   1.63561   1.75182   1.97851
 Alpha virt. eigenvalues --    2.05677   2.08670   2.28248   2.35221   2.56402
 Alpha virt. eigenvalues --    2.58694   2.60310   2.76281   3.64130   3.89888
 Alpha virt. eigenvalues --    5.09337   5.20128   5.36517   5.39569   5.43288
 Alpha virt. eigenvalues --    6.01271   6.18711   6.29969   6.35538   6.42342
 Alpha virt. eigenvalues --    6.85932   6.99646  43.21949
          Condensed to atoms (all electrons):
               1          2          3
     1  O    8.032062   0.297587   0.297587
     2  H    0.297587   0.414805  -0.026011
     3  H    0.297587  -0.026011   0.414805
 Mulliken charges:
               1
     1  O   -0.627237
     2  H    0.313618
     3  H    0.313618
 Sum of Mulliken charges =  -0.00000
 Mulliken charges with hydrogens summed into heavy atoms:
               1
     1  O   -0.000000
 Electronic spatial extent (au):  <R**2>=             19.7647
 Charge=             -0.0000 electrons
 Dipole moment (field-independent basis, Debye):
    X=             -0.0000    Y=             -0.0000    Z=             -2.0984  Tot=              2.0984
 Quadrupole moment (field-independent basis, Debye-Ang):
   XX=             -7.5913   YY=             -4.4355   ZZ=             -6.2747
   XY=              0.0000   XZ=              0.0000   YZ=             -0.0000
 Traceless Quadrupole moment (field-independent basis, Debye-Ang):
   XX=             -1.4908   YY=              1.6650   ZZ=             -0.1742
   XY=              0.0000   XZ=              0.0000   YZ=             -0.0000
 Octapole moment (field-independent basis, Debye-Ang**2):
  XXX=              0.0000  YYY=              0.0000  ZZZ=             -1.3759  XYY=             -0.0000
  XXY=              0.0000  XXZ=             -0.3699  XZZ=              0.0000  YZZ=              0.0000
  YYZ=             -1.3274  XYZ=             -0.0000
 Hexadecapole moment (field-independent basis, Debye-Ang**3):
 XXXX=             -6.5706 YYYY=             -6.4580 ZZZZ=             -7.3283 XXXY=             -0.0000
 XXXZ=             -0.0000 YYYX=             -0.0000 YYYZ=             -0.0000 ZZZX=             -0.0000
 ZZZY=             -0.0000 XXYY=             -2.4453 XXZZ=             -2.3743 YYZZ=             -1.9466
 XXYZ=              0.0000 YYXZ=              0.0000 ZZXY=              0.0000
 N-N= 9.107508424399D+00 E-N=-1.991066315437D+02  KE= 7.615528130545D+01
 Symmetry A1   KE= 6.793886353742D+01
 Symmetry A2   KE= 4.161565070575D-34
 Symmetry B1   KE= 4.564439499215D+00
 Symmetry B2   KE= 3.651978268809D+00
 No NMR shielding tensors so no spin-rotation constants.
 Leave Link  601 at Mon Mar 24 14:05:36 2025, MaxMem=   104857600 cpu:               0.2 elap:               0.2
 (Enter /opt/software/gaussian/g16.c01/l9999.exe)
 Unable to Open any file for archive entry.
 1\1\GINC-GRA61\SP\RB3LYP\def2TZVP\H2O1\NROB\24-Mar-2025\0\\#P B3LYP/De
 f2TZVP EmpiricalDispersion=GD3BJ\\water\\0,1\O,0,0.,0.120234,0.\H,0,0.
 757025,-0.480936,0.\H,0,-0.757025,-0.480936,0.\\Version=ES64L-G16RevC.
 01\State=1-A1\HF=-76.4634463\RMSD=7.325e-09\Dipole=0.,-0.8255714,0.\Qu
 adrupole=1.2379097,-0.1295082,-1.1084015,0.,0.,0.\PG=C02V [C2(O1),SGV(
 H2)]\\@
 The archive entry for this job was punched.


       THE DEATH-KNELL OF THE ATOM

 SO THE ATOMS IN TURN, WE NOW CLEARLY DISCERN,
 FLY TO BITS WITH THE UTMOST FACILITY;
 THEY WEND ON THEIR WAY, AND, IN SPLITTING, DISPLAY
 AN ABSOLUTE LACK OF STABILITY.

          SIR WM. RAMSAY, 1905
 Job cpu time:       0 days  0 hours  0 minutes  2.0 seconds.
 Elapsed time:       0 days  0 hours  0 minutes  1.8 seconds.
 File lengths (MBytes):  RWF=      6 Int=      0 D2E=      0 Chk=      1 Scr=      1
 Normal termination of Gaussian 16 at Mon Mar 24 14:05:36 2025.
