 Entering Gaussian System, Link 0=g16
 Initial command:
 /opt/software/gaussian/g16.c01/l1.exe "/localscratch/nrob.28214068.0/Gau-245978.inp" -scrdir="/localscratch/nrob.28214068.0/"
 Entering Link 1 = /opt/software/gaussian/g16.c01/l1.exe PID=    245979.
  
 Copyright (c) 1988-2019, Gaussian, Inc.  All Rights Reserved.
  
 This is part of the Gaussian(R) 16 program.  It is based on
 the Gaussian(R) 09 system (copyright 2009, Gaussian, Inc.),
 the Gaussian(R) 03 system (copyright 2003, Gaussian, Inc.),
 the Gaussian(R) 98 system (copyright 1998, Gaussian, Inc.),
 the Gaussian(R) 94 system (copyright 1995, Gaussian, Inc.),
 the Gaussian 92(TM) system (copyright 1992, Gaussian, Inc.),
 the Gaussian 90(TM) system (copyright 1990, Gaussian, Inc.),
 the Gaussian 88(TM) system (copyright 1988, Gaussian, Inc.),
 the Gaussian 86(TM) system (copyright 1986, Carnegie Mellon
 University), and the Gaussian 82(TM) system (copyright 1983,
 Carnegie Mellon University). Gaussian is a federally registered
 trademark of Gaussian, Inc.
  
 This software contains proprietary and confidential information,
 including trade secrets, belonging to Gaussian, Inc.
  
 This software is provided under written license and may be
 used, copied, transmitted, or stored only in accord with that
 written license.
  
 The following legend is applicable only to US Government
 contracts under FAR:
  
                    RESTRICTED RIGHTS LEGEND
  
 Use, reproduction and disclosure by the US Government is
 subject to restrictions as set forth in subparagraphs (a)
 and (c) of the Commercial Computer Software - Restricted
 Rights clause in FAR 52.227-19.
  
 Gaussian, Inc.
 340 Quinnipiac St., Bldg. 40, Wallingford CT 06492
  
  
 ---------------------------------------------------------------
 Warning -- This program may not be used in any manner that
 competes with the business of Gaussian, Inc. or will provide
 assistance to any competitor of Gaussian, Inc.  The licensee
 of this program is prohibited from giving any competitor of
 Gaussian, Inc. access to this program.  By using this program,
 the user acknowledges that Gaussian, Inc. is engaged in the
 business of creating and licensing software in the field of
 computational chemistry and represents and warrants to the
 licensee that it is not a competitor of Gaussian, Inc. and that
 it will not use this program in any manner prohibited above.
 ---------------------------------------------------------------
  

 Cite this work as:
 Gaussian 16, Revision C.01,
 M. J. Frisch, G. W. Trucks, H. B. Schlegel, G. E. Scuseria, 
 M. A. Robb, J. R. Cheeseman, G. Scalmani, V. Barone, 
 G. A. Petersson, H. Nakatsuji, X. Li, M. Caricato, A. V. Marenich, 
 J. Bloino, B. G. Janesko, R. Gomperts, B. Mennucci, H. P. Hratchian, 
 J. V. Ortiz, A. F. Izmaylov, J. L. Sonnenberg, D. Williams-Young, 
 F. Ding, F. Lipparini, F. Egidi, J. Goings, B. Peng, A. Petrone, 
 T. Henderson, D. Ranasinghe, V. G. Zakrzewski, J. Gao, N. Rega, 
 G. Zheng, W. Liang, M. Hada, M. Ehara, K. Toyota, R. Fukuda, 
 J. Hasegawa, M. Ishida, T. Nakajima, Y. Honda, O. Kitao, H. Nakai, 
 T. Vreven, K. Throssell, J. A. Montgomery, Jr., J. E. Peralta, 
 F. Ogliaro, M. J. Bearpark, J. J. Heyd, E. N. Brothers, K. N. Kudin, 
 V. N. Staroverov, T. A. Keith, R. Kobayashi, J. Normand, 
 K. Raghavachari, A. P. Rendell, J. C. Burant, S. S. Iyengar, 
 J. Tomasi, M. Cossi, J. M. Millam, M. Klene, C. Adamo, R. Cammi, 
 J. W. Ochterski, R. L. Martin, K. Morokuma, O. Farkas, 
 J. B. Foresman, and D. J. Fox, Gaussian, Inc., Wallingford CT, 2019.
 
 ******************************************
 Gaussian 16:  ES64L-G16RevC.01  3-Jul-2019
                24-Mar-2025 
 ******************************************
 ----------------------------------------------
 #P B3LYP/Def2SVP EmpiricalDispersion=GD3BJ Opt
 ----------------------------------------------
 1/18=20,19=15,26=3,38=1/1,3;
 2/9=110,12=2,17=6,18=5,40=1/2;
 3/5=43,7=101,11=2,25=1,30=1,71=1,74=-5,124=41/1,2,3;
 4//1;
 5/5=2,38=5/2;
 6/7=2,8=2,9=2,10=2,28=1/1;
 7//1,2,3,16;
 1/18=20,19=15,26=3/3(2);
 2/9=110/2;
 99//99;
 2/9=110/2;
 3/5=43,7=101,11=2,25=1,30=1,71=1,74=-5,124=41/1,2,3;
 4/5=5,16=3,69=1/1;
 5/5=2,38=5/2;
 7//1,2,3,16;
 1/18=20,19=15,26=3/3(-5);
 2/9=110/2;
 6/7=2,8=2,9=2,10=2,19=2,28=1/1;
 99/9=1/99;
 Leave Link    1 at Mon Mar 24 13:50:28 2025, MaxMem=           0 cpu:               0.0 elap:               0.0
 (Enter /opt/software/gaussian/g16.c01/l101.exe)
 -----
 water
 -----
 Symbolic Z-matrix:
 Charge =  0 Multiplicity = 1
 O                     0.12588   2.82592  -0.01006 
 H                    -0.31152   3.51564  -0.53153 
 H                    -0.22469   2.95116   0.88458 
 
 ITRead=  0  0  0
 MicOpt= -1 -1 -1
 NAtoms=      3 NQM=        3 NQMF=       0 NMMI=      0 NMMIF=      0
                NMic=       0 NMicF=      0.
                    Isotopes and Nuclear Properties:
 (Nuclear quadrupole moments (NQMom) in fm**2, nuclear magnetic moments (NMagM)
  in nuclear magnetons)

  Atom         1           2           3
 IAtWgt=          16           1           1
 AtmWgt=  15.9949146   1.0078250   1.0078250
 NucSpn=           0           1           1
 AtZEff=  -0.0000000  -0.0000000  -0.0000000
 NQMom=    0.0000000   0.0000000   0.0000000
 NMagM=    0.0000000   2.7928460   2.7928460
 AtZNuc=   8.0000000   1.0000000   1.0000000
 Leave Link  101 at Mon Mar 24 13:50:28 2025, MaxMem=   104857600 cpu:               0.2 elap:               0.2
 (Enter /opt/software/gaussian/g16.c01/l103.exe)

 GradGradGradGradGradGradGradGradGradGradGradGradGradGradGradGradGradGrad
 Berny optimization.
 Initialization pass.
                           ----------------------------
                           !    Initial Parameters    !
                           ! (Angstroms and Degrees)  !
 --------------------------                            --------------------------
 ! Name  Definition              Value          Derivative Info.                !
 --------------------------------------------------------------------------------
 ! R1    R(1,2)                  0.969          estimate D2E/DX2                !
 ! R2    R(1,3)                  0.969          estimate D2E/DX2                !
 ! A1    A(2,1,3)              103.9782         estimate D2E/DX2                !
 --------------------------------------------------------------------------------
 Trust Radius=3.00D-01 FncErr=1.00D-07 GrdErr=1.00D-06 EigMax=2.50D+02 EigMin=1.00D-04
 Number of steps in this run=     20 maximum allowed number of steps=    100.
 GradGradGradGradGradGradGradGradGradGradGradGradGradGradGradGradGradGrad

 Leave Link  103 at Mon Mar 24 13:50:29 2025, MaxMem=   104857600 cpu:               0.0 elap:               0.0
 (Enter /opt/software/gaussian/g16.c01/l202.exe)
                          Input orientation:                          
 ---------------------------------------------------------------------
 Center     Atomic      Atomic             Coordinates (Angstroms)
 Number     Number       Type             X           Y           Z
 ---------------------------------------------------------------------
      1          8           0        0.125879    2.825918   -0.010057
      2          1           0       -0.311516    3.515637   -0.531527
      3          1           0       -0.224688    2.951162    0.884584
 ---------------------------------------------------------------------
                    Distance matrix (angstroms):
                    1          2          3
     1  O    0.000000
     2  H    0.968998   0.000000
     3  H    0.969002   1.526939   0.000000
 Stoichiometry    H2O
 Framework group  CS[SG(H2O)]
 Deg. of freedom     3
 Full point group                 CS      NOp   2
 Largest Abelian subgroup         CS      NOp   2
 Largest concise Abelian subgroup C1      NOp   1
                         Standard orientation:                         
 ---------------------------------------------------------------------
 Center     Atomic      Atomic             Coordinates (Angstroms)
 Number     Number       Type             X           Y           Z
 ---------------------------------------------------------------------
      1          8           0        0.000000    0.119344    0.000000
      2          1           0        0.763469   -0.477374   -0.000000
      3          1           0       -0.763469   -0.477380    0.000000
 ---------------------------------------------------------------------
 Rotational constants (GHZ):         792.8742886         430.1489862         278.8614726
 Leave Link  202 at Mon Mar 24 13:50:29 2025, MaxMem=   104857600 cpu:               0.0 elap:               0.0
 (Enter /opt/software/gaussian/g16.c01/l301.exe)
 Standard basis: def2SVP (5D, 7F)
 Ernie: Thresh=  0.10000D-02 Tol=  0.10000D-05 Strict=F.
 There are    19 symmetry adapted cartesian basis functions of A'  symmetry.
 There are     6 symmetry adapted cartesian basis functions of A"  symmetry.
 There are    18 symmetry adapted basis functions of A'  symmetry.
 There are     6 symmetry adapted basis functions of A"  symmetry.
    24 basis functions,    39 primitive gaussians,    25 cartesian basis functions
     5 alpha electrons        5 beta electrons
       nuclear repulsion energy         9.0842617384 Hartrees.
 IExCor=  402 DFT=T Ex+Corr=B3LYP ExCW=0 ScaHFX=  0.200000
 ScaDFX=  0.800000  0.720000  1.000000  0.810000 ScalE2=  1.000000  1.000000
 IRadAn=      5 IRanWt=     -1 IRanGd=            0 ICorTp=0 IEmpDi=141
 NAtoms=    3 NActive=    3 NUniq=    3 SFac= 1.00D+00 NAtFMM=   60 NAOKFM=F Big=F
 Integral buffers will be    131072 words long.
 Raffenetti 2 integral format.
 Two-electron integral symmetry is turned on.
 R6Disp:  Grimme-D3(BJ) Dispersion energy=       -0.0005739008 Hartrees.
 Nuclear repulsion after empirical dispersion term =        9.0836878376 Hartrees.
 Leave Link  301 at Mon Mar 24 13:50:29 2025, MaxMem=   104857600 cpu:               0.1 elap:               0.1
 (Enter /opt/software/gaussian/g16.c01/l302.exe)
 NPDir=0 NMtPBC=     1 NCelOv=     1 NCel=       1 NClECP=     1 NCelD=      1
         NCelK=      1 NCelE2=     1 NClLst=     1 CellRange=     0.0.
 One-electron integrals computed using PRISM.
 One-electron integral symmetry used in STVInt
   2 Symmetry operations used in ECPInt.
 ECPInt:  NShTT=      78 NPrTT=     272 LenC2=      79 LenP2D=     271.
 LDataN:  DoStor=T MaxTD1= 4 Len=   56
 NBasis=    24 RedAO= T EigKep=  3.83D-02  NBF=    18     6
 NBsUse=    24 1.00D-06 EigRej= -1.00D+00 NBFU=    18     6
 Precomputing XC quadrature grid using
 IXCGrd= 4 IRadAn=           5 IRanWt=          -1 IRanGd=           0 AccXCQ= 0.00D+00.
 Generated NRdTot=       0 NPtTot=           0 NUsed=           0 NTot=          32
 NSgBfM=    25    25    25    25    25 MxSgAt=     3 MxSgA2=     3.
 Leave Link  302 at Mon Mar 24 13:50:29 2025, MaxMem=   104857600 cpu:               0.1 elap:               0.1
 (Enter /opt/software/gaussian/g16.c01/l303.exe)
 DipDrv:  MaxL=1.
 Leave Link  303 at Mon Mar 24 13:50:29 2025, MaxMem=   104857600 cpu:               0.0 elap:               0.0
 (Enter /opt/software/gaussian/g16.c01/l401.exe)
 ExpMin= 1.22D-01 ExpMax= 2.27D+03 ExpMxC= 3.41D+02 IAcc=3 IRadAn=         5 AccDes= 0.00D+00
 Harris functional with IExCor=  402 and IRadAn=       5 diagonalized for initial guess.
 HarFok:  IExCor=  402 AccDes= 0.00D+00 IRadAn=         5 IDoV= 1 UseB2=F ITyADJ=14
 ICtDFT=  3500011 ScaDFX=  1.000000  1.000000  1.000000  1.000000
 FoFCou: FMM=F IPFlag=           0 FMFlag=      100000 FMFlg1=           0
         NFxFlg=           0 DoJE=T BraDBF=F KetDBF=T FulRan=T
         wScrn=  0.000000 ICntrl=       500 IOpCl=  0 I1Cent=   200000004 NGrid=           0
         NMat0=    1 NMatS0=      1 NMatT0=    0 NMatD0=    1 NMtDS0=    0 NMtDT0=    0
 Petite list used in FoFCou.
 Harris En= -76.3965221172869    
 JPrj=0 DoOrth=F DoCkMO=F.
 Initial guess orbital symmetries:
       Occupied  (A') (A') (A') (A') (A")
       Virtual   (A') (A') (A') (A') (A") (A') (A') (A') (A") (A')
                 (A") (A') (A') (A') (A") (A") (A') (A') (A')
 The electronic state of the initial guess is 1-A'.
 Leave Link  401 at Mon Mar 24 13:50:29 2025, MaxMem=   104857600 cpu:               0.2 elap:               0.2
 (Enter /opt/software/gaussian/g16.c01/l502.exe)
 Keep R1 ints in memory in symmetry-blocked form, NReq=909846.
 FoFCou: FMM=F IPFlag=           0 FMFlag=           0 FMFlg1=           0
         NFxFlg=           0 DoJE=F BraDBF=F KetDBF=F FulRan=T
         wScrn=  0.000000 ICntrl=       600 IOpCl=  0 I1Cent=           0 NGrid=           0
         NMat0=    1 NMatS0=    300 NMatT0=    0 NMatD0=    1 NMtDS0=    0 NMtDT0=    0
 Petite list used in FoFCou.
 Closed shell SCF:
 Using DIIS extrapolation, IDIIS=  1040.
 NGot=   104857600 LenX=   104830307 LenY=   104829241
 Requested convergence on RMS density matrix=1.00D-08 within 128 cycles.
 Requested convergence on MAX density matrix=1.00D-06.
 Requested convergence on             energy=1.00D-06.
 No special actions if energy rises.
 Integral accuracy reduced to 1.0D-05 until final iterations.

 Cycle   1  Pass 0  IDiag  1:
 E= -76.2824961255078    
 DIIS: error= 5.21D-02 at cycle   1 NSaved=   1.
 NSaved= 1 IEnMin= 1 EnMin= -76.2824961255078     IErMin= 1 ErrMin= 5.21D-02
 ErrMax= 5.21D-02  0.00D+00 EMaxC= 1.00D-01 BMatC= 1.02D-01 BMatP= 1.02D-01
 IDIUse=3 WtCom= 4.79D-01 WtEn= 5.21D-01
 Coeff-Com:  0.100D+01
 Coeff-En:   0.100D+01
 Coeff:      0.100D+01
 Gap=     0.190 Goal=   None    Shift=    0.000
 GapD=    0.190 DampG=1.000 DampE=0.500 DampFc=0.5000 IDamp=-1.
 Damping current iteration by 5.00D-01
 RMSDP=2.09D-02 MaxDP=1.69D-01              OVMax= 2.03D-01

 Cycle   2  Pass 0  IDiag  1:
 E= -76.3084374507911     Delta-E=       -0.025941325283 Rises=F Damp=T
 DIIS: error= 1.42D-02 at cycle   2 NSaved=   2.
 NSaved= 2 IEnMin= 2 EnMin= -76.3084374507911     IErMin= 2 ErrMin= 1.42D-02
 ErrMax= 1.42D-02  0.00D+00 EMaxC= 1.00D-01 BMatC= 5.77D-03 BMatP= 1.02D-01
 IDIUse=3 WtCom= 8.58D-01 WtEn= 1.42D-01
 Coeff-Com:  0.181D+00 0.819D+00
 Coeff-En:   0.302D+00 0.698D+00
 Coeff:      0.199D+00 0.801D+00
 Gap=     0.324 Goal=   None    Shift=    0.000
 RMSDP=2.51D-03 MaxDP=3.09D-02 DE=-2.59D-02 OVMax= 1.12D-01

 Cycle   3  Pass 0  IDiag  1:
 E= -76.3587911127378     Delta-E=       -0.050353661947 Rises=F Damp=F
 DIIS: error= 1.79D-03 at cycle   3 NSaved=   3.
 NSaved= 3 IEnMin= 3 EnMin= -76.3587911127378     IErMin= 3 ErrMin= 1.79D-03
 ErrMax= 1.79D-03  0.00D+00 EMaxC= 1.00D-01 BMatC= 9.53D-05 BMatP= 5.77D-03
 IDIUse=3 WtCom= 9.82D-01 WtEn= 1.79D-02
 Coeff-Com:  0.315D-01 0.262D-01 0.942D+00
 Coeff-En:   0.000D+00 0.000D+00 0.100D+01
 Coeff:      0.310D-01 0.257D-01 0.943D+00
 Gap=     0.335 Goal=   None    Shift=    0.000
 RMSDP=2.71D-04 MaxDP=2.43D-03 DE=-5.04D-02 OVMax= 2.18D-03

 Cycle   4  Pass 0  IDiag  1:
 E= -76.3588547847213     Delta-E=       -0.000063671983 Rises=F Damp=F
 DIIS: error= 2.46D-04 at cycle   4 NSaved=   4.
 NSaved= 4 IEnMin= 4 EnMin= -76.3588547847213     IErMin= 4 ErrMin= 2.46D-04
 ErrMax= 2.46D-04  0.00D+00 EMaxC= 1.00D-01 BMatC= 2.07D-06 BMatP= 9.53D-05
 IDIUse=3 WtCom= 9.98D-01 WtEn= 2.46D-03
 Coeff-Com:  0.361D-02-0.154D-01 0.201D+00 0.810D+00
 Coeff-En:   0.000D+00 0.000D+00 0.000D+00 0.100D+01
 Coeff:      0.360D-02-0.153D-01 0.201D+00 0.811D+00
 Gap=     0.336 Goal=   None    Shift=    0.000
 RMSDP=2.72D-05 MaxDP=2.21D-04 DE=-6.37D-05 OVMax= 2.62D-04

 Cycle   5  Pass 0  IDiag  1:
 E= -76.3588560735015     Delta-E=       -0.000001288780 Rises=F Damp=F
 DIIS: error= 3.60D-05 at cycle   5 NSaved=   5.
 NSaved= 5 IEnMin= 5 EnMin= -76.3588560735015     IErMin= 5 ErrMin= 3.60D-05
 ErrMax= 3.60D-05  0.00D+00 EMaxC= 1.00D-01 BMatC= 3.43D-08 BMatP= 2.07D-06
 IDIUse=1 WtCom= 1.00D+00 WtEn= 0.00D+00
 Coeff-Com:  0.460D-03-0.490D-03 0.375D-03-0.109D-01 0.101D+01
 Coeff:      0.460D-03-0.490D-03 0.375D-03-0.109D-01 0.101D+01
 Gap=     0.336 Goal=   None    Shift=    0.000
 RMSDP=4.57D-06 MaxDP=4.70D-05 DE=-1.29D-06 OVMax= 4.31D-05

 Initial convergence to 1.0D-05 achieved.  Increase integral accuracy.
 Cycle   6  Pass 1  IDiag  1:
 E= -76.3588562443651     Delta-E=       -0.000000170864 Rises=F Damp=F
 DIIS: error= 4.07D-07 at cycle   1 NSaved=   1.
 NSaved= 1 IEnMin= 1 EnMin= -76.3588562443651     IErMin= 1 ErrMin= 4.07D-07
 ErrMax= 4.07D-07  0.00D+00 EMaxC= 1.00D-01 BMatC= 3.97D-12 BMatP= 3.97D-12
 IDIUse=1 WtCom= 1.00D+00 WtEn= 0.00D+00
 Coeff-Com:  0.100D+01
 Coeff:      0.100D+01
 Gap=     0.336 Goal=   None    Shift=    0.000
 RMSDP=4.57D-06 MaxDP=4.70D-05 DE=-1.71D-07 OVMax= 9.13D-07

 Cycle   7  Pass 1  IDiag  1:
 E= -76.3588562443705     Delta-E=       -0.000000000005 Rises=F Damp=F
 DIIS: error= 9.38D-08 at cycle   2 NSaved=   2.
 NSaved= 2 IEnMin= 2 EnMin= -76.3588562443705     IErMin= 2 ErrMin= 9.38D-08
 ErrMax= 9.38D-08  0.00D+00 EMaxC= 1.00D-01 BMatC= 1.51D-13 BMatP= 3.97D-12
 IDIUse=1 WtCom= 1.00D+00 WtEn= 0.00D+00
 Coeff-Com:  0.462D-02 0.995D+00
 Coeff:      0.462D-02 0.995D+00
 Gap=     0.336 Goal=   None    Shift=    0.000
 RMSDP=2.50D-08 MaxDP=2.30D-07 DE=-5.36D-12 OVMax= 2.70D-07

 Cycle   8  Pass 1  IDiag  1:
 E= -76.3588562443705     Delta-E=        0.000000000000 Rises=F Damp=F
 DIIS: error= 8.73D-08 at cycle   3 NSaved=   3.
 NSaved= 3 IEnMin= 2 EnMin= -76.3588562443705     IErMin= 3 ErrMin= 8.73D-08
 ErrMax= 8.73D-08  0.00D+00 EMaxC= 1.00D-01 BMatC= 2.19D-13 BMatP= 1.51D-13
 IDIUse=1 WtCom= 1.00D+00 WtEn= 0.00D+00
 Coeff-Com: -0.425D-01 0.569D+00 0.474D+00
 Coeff:     -0.425D-01 0.569D+00 0.474D+00
 Gap=     0.336 Goal=   None    Shift=    0.000
 RMSDP=1.24D-08 MaxDP=1.11D-07 DE= 1.42D-14 OVMax= 1.11D-07

 Cycle   9  Pass 1  IDiag  1:
 E= -76.3588562443705     Delta-E=       -0.000000000000 Rises=F Damp=F
 DIIS: error= 9.20D-09 at cycle   4 NSaved=   4.
 NSaved= 4 IEnMin= 4 EnMin= -76.3588562443705     IErMin= 4 ErrMin= 9.20D-09
 ErrMax= 9.20D-09  0.00D+00 EMaxC= 1.00D-01 BMatC= 1.53D-15 BMatP= 1.51D-13
 IDIUse=1 WtCom= 1.00D+00 WtEn= 0.00D+00
 Coeff-Com: -0.103D-01 0.116D+00 0.139D+00 0.756D+00
 Coeff:     -0.103D-01 0.116D+00 0.139D+00 0.756D+00
 Gap=     0.336 Goal=   None    Shift=    0.000
 RMSDP=1.06D-09 MaxDP=8.46D-09 DE=-8.53D-14 OVMax= 1.31D-08

 SCF Done:  E(RB3LYP) =  -76.3588562444     A.U. after    9 cycles
            NFock=  9  Conv=0.11D-08     -V/T= 2.0070
 KE= 7.582680811459D+01 PE=-1.987511925270D+02 EE= 3.748184033043D+01
 Leave Link  502 at Mon Mar 24 13:50:30 2025, MaxMem=   104857600 cpu:               0.6 elap:               0.6
 (Enter /opt/software/gaussian/g16.c01/l601.exe)
 Copying SCF densities to generalized density rwf, IOpCl= 0 IROHF=0.

 **********************************************************************

            Population analysis using the SCF Density.

 **********************************************************************

 Orbital symmetries:
       Occupied  (A') (A') (A') (A') (A")
       Virtual   (A') (A') (A') (A') (A') (A") (A') (A') (A") (A')
                 (A") (A') (A') (A') (A") (A") (A') (A') (A')
 The electronic state is 1-A'.
 Alpha  occ. eigenvalues --  -19.11952  -0.97804  -0.51228  -0.36598  -0.29121
 Alpha virt. eigenvalues --    0.04447   0.12334   0.55622   0.61537   0.91685
 Alpha virt. eigenvalues --    0.92052   1.00642   1.09332   1.34450   1.40721
 Alpha virt. eigenvalues --    1.54660   1.77862   2.19519   2.24065   2.95386
 Alpha virt. eigenvalues --    2.99774   3.17847   3.48695   3.81298
          Condensed to atoms (all electrons):
               1          2          3
     1  O    7.650598   0.324212   0.324211
     2  H    0.324212   0.558957  -0.032679
     3  H    0.324211  -0.032679   0.558956
 Mulliken charges:
               1
     1  O   -0.299021
     2  H    0.149510
     3  H    0.149511
 Sum of Mulliken charges =  -0.00000
 Mulliken charges with hydrogens summed into heavy atoms:
               1
     1  O   -0.000000
 Electronic spatial extent (au):  <R**2>=             19.0448
 Charge=             -0.0000 electrons
 Dipole moment (field-independent basis, Debye):
    X=              0.0000    Y=             -1.9941    Z=             -0.0000  Tot=              1.9941
 Quadrupole moment (field-independent basis, Debye-Ang):
   XX=             -4.3121   YY=             -5.9591   ZZ=             -7.0088
   XY=              0.0000   XZ=              0.0000   YZ=             -0.0000
 Traceless Quadrupole moment (field-independent basis, Debye-Ang):
   XX=              1.4479   YY=             -0.1991   ZZ=             -1.2488
   XY=              0.0000   XZ=              0.0000   YZ=             -0.0000
 Octapole moment (field-independent basis, Debye-Ang**2):
  XXX=              0.0000  YYY=             -1.0499  ZZZ=             -0.0000  XYY=             -0.0000
  XXY=             -1.1171  XXZ=             -0.0000  XZZ=              0.0000  YZZ=             -0.2732
  YYZ=             -0.0000  XYZ=              0.0000
 Hexadecapole moment (field-independent basis, Debye-Ang**3):
 XXXX=             -6.2008 YYYY=             -6.1567 ZZZZ=             -4.8490 XXXY=             -0.0000
 XXXZ=              0.0000 YYYX=             -0.0000 YYYZ=             -0.0000 ZZZX=              0.0000
 ZZZY=             -0.0000 XXYY=             -1.7328 XXZZ=             -2.1028 YYZZ=             -1.8875
 XXYZ=             -0.0000 YYXZ=              0.0000 ZZXY=             -0.0000
 N-N= 9.083687837627D+00 E-N=-1.987511923576D+02  KE= 7.582680811459D+01
 Symmetry A'   KE= 7.119605518545D+01
 Symmetry A"   KE= 4.630752929139D+00
 No NMR shielding tensors so no spin-rotation constants.
 Leave Link  601 at Mon Mar 24 13:50:30 2025, MaxMem=   104857600 cpu:               0.1 elap:               0.1
 (Enter /opt/software/gaussian/g16.c01/l701.exe)
 ... and contract with generalized density number  0.
 Compute integral first derivatives.
 R6Disp: Adding Grimme-D3(BJ) dispersion energy 1st derivatives to the gradient.
   2 Symmetry operations used in ECPInt.
 ECPInt:  NShTT=      78 NPrTT=     272 LenC2=      79 LenP2D=     271.
 LDataN:  DoStor=T MaxTD1= 5 Len=  102
 Leave Link  701 at Mon Mar 24 13:50:31 2025, MaxMem=   104857600 cpu:               0.1 elap:               0.1
 (Enter /opt/software/gaussian/g16.c01/l702.exe)
 L702 exits ... SP integral derivatives will be done elsewhere.
 Leave Link  702 at Mon Mar 24 13:50:31 2025, MaxMem=   104857600 cpu:               0.0 elap:               0.0
 (Enter /opt/software/gaussian/g16.c01/l703.exe)
 Integral derivatives from FoFJK, PRISM(SPDF).
 Compute integral first derivatives, UseDBF=F ICtDFT=           0.
 Calling FoFJK, ICntrl=      2127 FMM=F ISym2X=1 I1Cent= 0 IOpClX= 0 NMat=1 NMatS=1 NMatT=0.
 FoFJK:  IHMeth= 1 ICntrl=    2127 DoSepK=F KAlg= 0 I1Cent=           0 FoldK=F
 IRaf=         0 NMat=       1 IRICut=       1 DoRegI=T DoRafI=F ISym2E= 1 IDoP0=0 IntGTp=1.
 FoFCou: FMM=F IPFlag=           0 FMFlag=      100000 FMFlg1=         800
         NFxFlg=           0 DoJE=F BraDBF=F KetDBF=F FulRan=T
         wScrn=  0.000000 ICntrl=      2127 IOpCl=  0 I1Cent=           0 NGrid=           0
         NMat0=    1 NMatS0=      1 NMatT0=    0 NMatD0=    1 NMtDS0=    0 NMtDT0=    0
 Petite list used in FoFCou.
 Leave Link  703 at Mon Mar 24 13:50:31 2025, MaxMem=   104857600 cpu:               0.2 elap:               0.2
 (Enter /opt/software/gaussian/g16.c01/l716.exe)
 Dipole        = 1.34168666D-06-7.84548001D-01-2.32525880D-18
 ***** Axes restored to original set *****
 -------------------------------------------------------------------
 Center     Atomic                   Forces (Hartrees/Bohr)
 Number     Number              X              Y              Z
 -------------------------------------------------------------------
      1        8          -0.000658297    0.000679831    0.000314907
      2        1           0.000503951   -0.001480964    0.002707729
      3        1           0.000154346    0.000801133   -0.003022636
 -------------------------------------------------------------------
 Cartesian Forces:  Max     0.003022636 RMS     0.001512014
 Leave Link  716 at Mon Mar 24 13:50:31 2025, MaxMem=   104857600 cpu:               0.0 elap:               0.0
 (Enter /opt/software/gaussian/g16.c01/l103.exe)

 GradGradGradGradGradGradGradGradGradGradGradGradGradGradGradGradGradGrad
 Berny optimization.
 FormGI is forming the generalized inverse of G from B-inverse, IUseBI=4.
 Internal  Forces:  Max     0.002763808 RMS     0.002748541
 Search for a local minimum.
 Step number   1 out of a maximum of   20
 All quantities printed in internal units (Hartrees-Bohrs-Radians)
 RMS Force = .27485D-02 SwitMx=.10000D-02 MixMth= 1
 Mixed Optimization -- RFO/linear search
 Second derivative matrix not updated -- first step.
 The second derivative matrix:
                          R1        R2        A1
           R1           0.53582
           R2           0.00000   0.53581
           A1           0.00000   0.00000   0.16000
 ITU=  0
     Eigenvalues ---    0.16000   0.53581   0.53582
 RFO step:  Lambda=-7.57558164D-05 EMin= 1.60000000D-01
 Linear search not attempted -- first point.
 Iteration  1 RMS(Cart)=  0.01205958 RMS(Int)=  0.00006217
 Iteration  2 RMS(Cart)=  0.00004315 RMS(Int)=  0.00000000
 Iteration  3 RMS(Cart)=  0.00000000 RMS(Int)=  0.00000000
 ITry= 1 IFail=0 DXMaxC= 1.38D-02 DCOld= 1.00D+10 DXMaxT= 3.00D-01 DXLimC= 3.00D+00 Rises=F
 ClnCor:  largest displacement from symmetrization is 1.20D-15 for atom     2.
 Variable       Old X    -DE/DX   Delta X   Delta X   Delta X     New X
                                 (Linear)    (Quad)   (Total)
    R1        1.83114  -0.00274   0.00000  -0.00511  -0.00511   1.82603
    R2        1.83115  -0.00274   0.00000  -0.00512  -0.00512   1.82603
    A1        1.81476  -0.00276   0.00000  -0.01727  -0.01727   1.79750
         Item               Value     Threshold  Converged?
 Maximum Force            0.002764     0.000450     NO 
 RMS     Force            0.002749     0.000300     NO 
 Maximum Displacement     0.013751     0.001800     NO 
 RMS     Displacement     0.012071     0.001200     NO 
 Predicted change in Energy=-3.789119D-05
 Lowest energy point so far.  Saving SCF results.
 GradGradGradGradGradGradGradGradGradGradGradGradGradGradGradGradGradGrad

 Leave Link  103 at Mon Mar 24 13:50:31 2025, MaxMem=   104857600 cpu:               0.0 elap:               0.0
 (Enter /opt/software/gaussian/g16.c01/l202.exe)
                          Input orientation:                          
 ---------------------------------------------------------------------
 Center     Atomic      Atomic             Coordinates (Angstroms)
 Number     Number       Type             X           Y           Z
 ---------------------------------------------------------------------
      1          8           0        0.128029    2.823694   -0.011074
      2          1           0       -0.312176    3.514051   -0.524250
      3          1           0       -0.226177    2.954971    0.878324
 ---------------------------------------------------------------------
                    Distance matrix (angstroms):
                    1          2          3
     1  O    0.000000
     2  H    0.966294   0.000000
     3  H    0.966294   1.512343   0.000000
 Stoichiometry    H2O
 Framework group  CS[SG(H2O)]
 Deg. of freedom     3
 Full point group                 CS      NOp   2
 RotChk:  IX=0 Diff= 5.21D-06
 Largest Abelian subgroup         CS      NOp   2
 Largest concise Abelian subgroup C1      NOp   1
                         Standard orientation:                         
 ---------------------------------------------------------------------
 Center     Atomic      Atomic             Coordinates (Angstroms)
 Number     Number       Type             X           Y           Z
 ---------------------------------------------------------------------
      1          8           0        0.000000    0.120321   -0.000000
      2          1           0        0.756172   -0.481284    0.000000
      3          1           0       -0.756172   -0.481284    0.000000
 ---------------------------------------------------------------------
 Rotational constants (GHZ):         780.0542591         438.4917234         280.7012138
 Leave Link  202 at Mon Mar 24 13:50:31 2025, MaxMem=   104857600 cpu:               0.0 elap:               0.0
 (Enter /opt/software/gaussian/g16.c01/l301.exe)
 Standard basis: def2SVP (5D, 7F)
 Ernie: Thresh=  0.10000D-02 Tol=  0.10000D-05 Strict=F.
 There are    19 symmetry adapted cartesian basis functions of A'  symmetry.
 There are     6 symmetry adapted cartesian basis functions of A"  symmetry.
 There are    18 symmetry adapted basis functions of A'  symmetry.
 There are     6 symmetry adapted basis functions of A"  symmetry.
    24 basis functions,    39 primitive gaussians,    25 cartesian basis functions
     5 alpha electrons        5 beta electrons
       nuclear repulsion energy         9.1120801195 Hartrees.
 IExCor=  402 DFT=T Ex+Corr=B3LYP ExCW=0 ScaHFX=  0.200000
 ScaDFX=  0.800000  0.720000  1.000000  0.810000 ScalE2=  1.000000  1.000000
 IRadAn=      5 IRanWt=     -1 IRanGd=            0 ICorTp=0 IEmpDi=141
 NAtoms=    3 NActive=    3 NUniq=    3 SFac= 1.00D+00 NAtFMM=   60 NAOKFM=F Big=F
 Integral buffers will be    131072 words long.
 Raffenetti 2 integral format.
 Two-electron integral symmetry is turned on.
 R6Disp:  Grimme-D3(BJ) Dispersion energy=       -0.0005739543 Hartrees.
 Nuclear repulsion after empirical dispersion term =        9.1115061651 Hartrees.
 Leave Link  301 at Mon Mar 24 13:50:31 2025, MaxMem=   104857600 cpu:               0.0 elap:               0.1
 (Enter /opt/software/gaussian/g16.c01/l302.exe)
 NPDir=0 NMtPBC=     1 NCelOv=     1 NCel=       1 NClECP=     1 NCelD=      1
         NCelK=      1 NCelE2=     1 NClLst=     1 CellRange=     0.0.
 One-electron integrals computed using PRISM.
 One-electron integral symmetry used in STVInt
   2 Symmetry operations used in ECPInt.
 ECPInt:  NShTT=      78 NPrTT=     272 LenC2=      79 LenP2D=     271.
 LDataN:  DoStor=T MaxTD1= 4 Len=   56
 NBasis=    24 RedAO= T EigKep=  3.79D-02  NBF=    18     6
 NBsUse=    24 1.00D-06 EigRej= -1.00D+00 NBFU=    18     6
 Precomputing XC quadrature grid using
 IXCGrd= 4 IRadAn=           5 IRanWt=          -1 IRanGd=           0 AccXCQ= 0.00D+00.
 Generated NRdTot=       0 NPtTot=           0 NUsed=           0 NTot=          32
 NSgBfM=    25    25    25    25    25 MxSgAt=     3 MxSgA2=     3.
 Leave Link  302 at Mon Mar 24 13:50:31 2025, MaxMem=   104857600 cpu:               0.1 elap:               0.1
 (Enter /opt/software/gaussian/g16.c01/l303.exe)
 DipDrv:  MaxL=1.
 Leave Link  303 at Mon Mar 24 13:50:31 2025, MaxMem=   104857600 cpu:               0.0 elap:               0.0
 (Enter /opt/software/gaussian/g16.c01/l401.exe)
 Initial guess from the checkpoint file:  "/localscratch/nrob.28214068.0/Gau-245979.chk"
 B after Tr=     0.000000   -0.000000   -0.000000
         Rot=    1.000000   -0.000000    0.000000    0.000001 Ang=   0.00 deg.
 Guess basis will be translated and rotated to current coordinates.
 JPrj=2 DoOrth=T DoCkMO=T.
 Initial guess orbital symmetries:
       Occupied  (A') (A') (A') (A') (A")
       Virtual   (A') (A') (A') (A') (A') (A") (A') (A') (A") (A')
                 (A") (A') (A') (A') (A") (A") (A') (A') (A')
 The electronic state of the initial guess is 1-A'.
 Leave Link  401 at Mon Mar 24 13:50:32 2025, MaxMem=   104857600 cpu:               0.1 elap:               0.1
 (Enter /opt/software/gaussian/g16.c01/l502.exe)
 Keep R1 ints in memory in symmetry-blocked form, NReq=909846.
 FoFCou: FMM=F IPFlag=           0 FMFlag=           0 FMFlg1=           0
         NFxFlg=           0 DoJE=F BraDBF=F KetDBF=F FulRan=T
         wScrn=  0.000000 ICntrl=       600 IOpCl=  0 I1Cent=           0 NGrid=           0
         NMat0=    1 NMatS0=    300 NMatT0=    0 NMatD0=    1 NMtDS0=    0 NMtDT0=    0
 Petite list used in FoFCou.
 Closed shell SCF:
 Using DIIS extrapolation, IDIIS=  1040.
 NGot=   104857600 LenX=   104830307 LenY=   104829241
 Requested convergence on RMS density matrix=1.00D-08 within 128 cycles.
 Requested convergence on MAX density matrix=1.00D-06.
 Requested convergence on             energy=1.00D-06.
 No special actions if energy rises.

 Cycle   1  Pass 1  IDiag  1:
 E= -76.3588701866324    
 DIIS: error= 7.41D-04 at cycle   1 NSaved=   1.
 NSaved= 1 IEnMin= 1 EnMin= -76.3588701866324     IErMin= 1 ErrMin= 7.41D-04
 ErrMax= 7.41D-04  0.00D+00 EMaxC= 1.00D-01 BMatC= 1.88D-05 BMatP= 1.88D-05
 IDIUse=3 WtCom= 9.93D-01 WtEn= 7.41D-03
 Coeff-Com:  0.100D+01
 Coeff-En:   0.100D+01
 Coeff:      0.100D+01
 Gap=     0.337 Goal=   None    Shift=    0.000
 RMSDP=3.02D-04 MaxDP=2.12D-03              OVMax= 1.85D-03

 Cycle   2  Pass 1  IDiag  1:
 E= -76.3588887207983     Delta-E=       -0.000018534166 Rises=F Damp=F
 DIIS: error= 1.31D-04 at cycle   2 NSaved=   2.
 NSaved= 2 IEnMin= 2 EnMin= -76.3588887207983     IErMin= 2 ErrMin= 1.31D-04
 ErrMax= 1.31D-04  0.00D+00 EMaxC= 1.00D-01 BMatC= 4.01D-07 BMatP= 1.88D-05
 IDIUse=3 WtCom= 9.99D-01 WtEn= 1.31D-03
 Coeff-Com:  0.261D-01 0.974D+00
 Coeff-En:   0.000D+00 0.100D+01
 Coeff:      0.260D-01 0.974D+00
 Gap=     0.336 Goal=   None    Shift=    0.000
 RMSDP=3.80D-05 MaxDP=3.07D-04 DE=-1.85D-05 OVMax= 3.65D-04

 Cycle   3  Pass 1  IDiag  1:
 E= -76.3588886092455     Delta-E=        0.000000111553 Rises=F Damp=F
 DIIS: error= 1.41D-04 at cycle   3 NSaved=   3.
 NSaved= 3 IEnMin= 2 EnMin= -76.3588887207983     IErMin= 2 ErrMin= 1.31D-04
 ErrMax= 1.41D-04  0.00D+00 EMaxC= 1.00D-01 BMatC= 5.97D-07 BMatP= 4.01D-07
 IDIUse=3 WtCom= 4.57D-01 WtEn= 5.43D-01
 Coeff-Com: -0.482D-02 0.553D+00 0.452D+00
 Coeff-En:   0.000D+00 0.574D+00 0.426D+00
 Coeff:     -0.220D-02 0.564D+00 0.438D+00
 Gap=     0.337 Goal=   None    Shift=    0.000
 RMSDP=2.00D-05 MaxDP=1.67D-04 DE= 1.12D-07 OVMax= 1.88D-04

 Cycle   4  Pass 1  IDiag  1:
 E= -76.3588890317170     Delta-E=       -0.000000422471 Rises=F Damp=F
 DIIS: error= 9.52D-06 at cycle   4 NSaved=   4.
 NSaved= 4 IEnMin= 4 EnMin= -76.3588890317170     IErMin= 4 ErrMin= 9.52D-06
 ErrMax= 9.52D-06  0.00D+00 EMaxC= 1.00D-01 BMatC= 1.61D-09 BMatP= 4.01D-07
 IDIUse=1 WtCom= 1.00D+00 WtEn= 0.00D+00
 Coeff-Com: -0.315D-02 0.737D-01 0.773D-01 0.852D+00
 Coeff:     -0.315D-02 0.737D-01 0.773D-01 0.852D+00
 Gap=     0.337 Goal=   None    Shift=    0.000
 RMSDP=1.23D-06 MaxDP=9.72D-06 DE=-4.22D-07 OVMax= 1.20D-05

 Cycle   5  Pass 1  IDiag  1:
 E= -76.3588890328194     Delta-E=       -0.000000001102 Rises=F Damp=F
 DIIS: error= 1.57D-06 at cycle   5 NSaved=   5.
 NSaved= 5 IEnMin= 5 EnMin= -76.3588890328194     IErMin= 5 ErrMin= 1.57D-06
 ErrMax= 1.57D-06  0.00D+00 EMaxC= 1.00D-01 BMatC= 4.25D-11 BMatP= 1.61D-09
 IDIUse=1 WtCom= 1.00D+00 WtEn= 0.00D+00
 Coeff-Com: -0.262D-03-0.491D-03 0.105D-02 0.149D+00 0.851D+00
 Coeff:     -0.262D-03-0.491D-03 0.105D-02 0.149D+00 0.851D+00
 Gap=     0.337 Goal=   None    Shift=    0.000
 RMSDP=1.53D-07 MaxDP=1.03D-06 DE=-1.10D-09 OVMax= 1.64D-06

 Cycle   6  Pass 1  IDiag  1:
 E= -76.3588890328480     Delta-E=       -0.000000000029 Rises=F Damp=F
 DIIS: error= 1.78D-08 at cycle   6 NSaved=   6.
 NSaved= 6 IEnMin= 6 EnMin= -76.3588890328480     IErMin= 6 ErrMin= 1.78D-08
 ErrMax= 1.78D-08  0.00D+00 EMaxC= 1.00D-01 BMatC= 9.66D-15 BMatP= 4.25D-11
 IDIUse=1 WtCom= 1.00D+00 WtEn= 0.00D+00
 Coeff-Com:  0.956D-05-0.204D-03-0.182D-03-0.474D-02-0.205D-01 0.103D+01
 Coeff:      0.956D-05-0.204D-03-0.182D-03-0.474D-02-0.205D-01 0.103D+01
 Gap=     0.337 Goal=   None    Shift=    0.000
 RMSDP=8.41D-09 MaxDP=4.52D-08 DE=-2.86D-11 OVMax= 1.04D-07

 SCF Done:  E(RB3LYP) =  -76.3588890328     A.U. after    6 cycles
            NFock=  6  Conv=0.84D-08     -V/T= 2.0069
 KE= 7.583767721112D+01 PE=-1.988081226315D+02 EE= 3.750005022234D+01
 Leave Link  502 at Mon Mar 24 13:50:32 2025, MaxMem=   104857600 cpu:               0.5 elap:               0.5
 (Enter /opt/software/gaussian/g16.c01/l701.exe)
 ... and contract with generalized density number  0.
 Compute integral first derivatives.
 R6Disp: Adding Grimme-D3(BJ) dispersion energy 1st derivatives to the gradient.
   2 Symmetry operations used in ECPInt.
 ECPInt:  NShTT=      78 NPrTT=     272 LenC2=      79 LenP2D=     271.
 LDataN:  DoStor=T MaxTD1= 5 Len=  102
 Leave Link  701 at Mon Mar 24 13:50:32 2025, MaxMem=   104857600 cpu:               0.1 elap:               0.1
 (Enter /opt/software/gaussian/g16.c01/l702.exe)
 L702 exits ... SP integral derivatives will be done elsewhere.
 Leave Link  702 at Mon Mar 24 13:50:32 2025, MaxMem=   104857600 cpu:               0.0 elap:               0.0
 (Enter /opt/software/gaussian/g16.c01/l703.exe)
 Integral derivatives from FoFJK, PRISM(SPDF).
 Compute integral first derivatives, UseDBF=F ICtDFT=           0.
 Calling FoFJK, ICntrl=      2127 FMM=F ISym2X=1 I1Cent= 0 IOpClX= 0 NMat=1 NMatS=1 NMatT=0.
 FoFJK:  IHMeth= 1 ICntrl=    2127 DoSepK=F KAlg= 0 I1Cent=           0 FoldK=F
 IRaf=         0 NMat=       1 IRICut=       1 DoRegI=T DoRafI=F ISym2E= 1 IDoP0=0 IntGTp=1.
 FoFCou: FMM=F IPFlag=           0 FMFlag=      100000 FMFlg1=         800
         NFxFlg=           0 DoJE=F BraDBF=F KetDBF=F FulRan=T
         wScrn=  0.000000 ICntrl=      2127 IOpCl=  0 I1Cent=           0 NGrid=           0
         NMat0=    1 NMatS0=      1 NMatT0=    0 NMatD0=    1 NMtDS0=    0 NMtDT0=    0
 Petite list used in FoFCou.
 Leave Link  703 at Mon Mar 24 13:50:32 2025, MaxMem=   104857600 cpu:               0.2 elap:               0.2
 (Enter /opt/software/gaussian/g16.c01/l716.exe)
 Dipole        = 1.13116021D-08-7.89101156D-01-3.96434170D-17
 ***** Axes restored to original set *****
 -------------------------------------------------------------------
 Center     Atomic                   Forces (Hartrees/Bohr)
 Number     Number              X              Y              Z
 -------------------------------------------------------------------
      1        8           0.000189636   -0.000196140   -0.000089789
      2        1          -0.000121870    0.000273910   -0.000396222
      3        1          -0.000067765   -0.000077770    0.000486011
 -------------------------------------------------------------------
 Cartesian Forces:  Max     0.000486011 RMS     0.000253029
 Leave Link  716 at Mon Mar 24 13:50:33 2025, MaxMem=   104857600 cpu:               0.0 elap:               0.0
 (Enter /opt/software/gaussian/g16.c01/l103.exe)

 GradGradGradGradGradGradGradGradGradGradGradGradGradGradGradGradGradGrad
 Berny optimization.
 Using GEDIIS/GDIIS optimizer.
 FormGI is forming the generalized inverse of G from B-inverse, IUseBI=4.
 Internal  Forces:  Max     0.000461636 RMS     0.000423782
 Search for a local minimum.
 Step number   2 out of a maximum of   20
 All quantities printed in internal units (Hartrees-Bohrs-Radians)
 RMS Force = .42378D-03 SwitMx=.10000D-02 MixMth= 2
 Mixed Optimization -- En-DIIS/RFO-DIIS
 Update second derivatives using D2CorX and points    1    2
 DE= -3.28D-05 DEPred=-3.79D-05 R= 8.65D-01
 TightC=F SS=  1.41D+00  RLast= 1.87D-02 DXNew= 5.0454D-01 5.6159D-02
 Trust test= 8.65D-01 RLast= 1.87D-02 DXMaxT set to 3.00D-01
 The second derivative matrix:
                          R1        R2        A1
           R1           0.55553
           R2           0.01971   0.55552
           A1           0.01508   0.01508   0.17057
 ITU=  1  0
 Use linear search instead of GDIIS.
     Eigenvalues ---    0.16945   0.53582   0.57636
 RFO step:  Lambda=-3.21903253D-08 EMin= 1.69452248D-01
 Quartic linear search produced a step of -0.12064.
 Iteration  1 RMS(Cart)=  0.00137314 RMS(Int)=  0.00000074
 Iteration  2 RMS(Cart)=  0.00000049 RMS(Int)=  0.00000000
 ITry= 1 IFail=0 DXMaxC= 1.58D-03 DCOld= 1.00D+10 DXMaxT= 3.00D-01 DXLimC= 3.00D+00 Rises=F
 ClnCor:  largest displacement from symmetrization is 1.01D-15 for atom     2.
 Variable       Old X    -DE/DX   Delta X   Delta X   Delta X     New X
                                 (Linear)    (Quad)   (Total)
    R1        1.82603   0.00046   0.00062   0.00014   0.00075   1.82678
    R2        1.82603   0.00046   0.00062   0.00013   0.00075   1.82678
    A1        1.79750   0.00034   0.00208  -0.00028   0.00180   1.79930
         Item               Value     Threshold  Converged?
 Maximum Force            0.000462     0.000450     NO 
 RMS     Force            0.000424     0.000300     NO 
 Maximum Displacement     0.001582     0.001800     YES
 RMS     Displacement     0.001373     0.001200     NO 
 Predicted change in Energy=-6.557975D-07
 Lowest energy point so far.  Saving SCF results.
 GradGradGradGradGradGradGradGradGradGradGradGradGradGradGradGradGradGrad

 Leave Link  103 at Mon Mar 24 13:50:33 2025, MaxMem=   104857600 cpu:               0.0 elap:               0.0
 (Enter /opt/software/gaussian/g16.c01/l202.exe)
                          Input orientation:                          
 ---------------------------------------------------------------------
 Center     Atomic      Atomic             Coordinates (Angstroms)
 Number     Number       Type             X           Y           Z
 ---------------------------------------------------------------------
      1          8           0        0.127837    2.823892   -0.010983
      2          1           0       -0.312129    3.514268   -0.525088
      3          1           0       -0.226033    2.954557    0.879071
 ---------------------------------------------------------------------
                    Distance matrix (angstroms):
                    1          2          3
     1  O    0.000000
     2  H    0.966692   0.000000
     3  H    0.966692   1.514051   0.000000
 Stoichiometry    H2O
 Framework group  CS[SG(H2O)]
 Deg. of freedom     3
 Full point group                 CS      NOp   2
 RotChk:  IX=0 Diff= 2.52D-08
 Largest Abelian subgroup         CS      NOp   2
 Largest concise Abelian subgroup C1      NOp   1
                         Standard orientation:                         
 ---------------------------------------------------------------------
 Center     Atomic      Atomic             Coordinates (Angstroms)
 Number     Number       Type             X           Y           Z
 ---------------------------------------------------------------------
      1          8           0        0.000000    0.120234   -0.000000
      2          1           0        0.757025   -0.480936    0.000000
      3          1           0       -0.757025   -0.480936   -0.000000
 ---------------------------------------------------------------------
 Rotational constants (GHZ):         781.1817484         437.5030848         280.4411899
 Leave Link  202 at Mon Mar 24 13:50:33 2025, MaxMem=   104857600 cpu:               0.0 elap:               0.0
 (Enter /opt/software/gaussian/g16.c01/l301.exe)
 Standard basis: def2SVP (5D, 7F)
 Ernie: Thresh=  0.10000D-02 Tol=  0.10000D-05 Strict=F.
 There are    19 symmetry adapted cartesian basis functions of A'  symmetry.
 There are     6 symmetry adapted cartesian basis functions of A"  symmetry.
 There are    18 symmetry adapted basis functions of A'  symmetry.
 There are     6 symmetry adapted basis functions of A"  symmetry.
    24 basis functions,    39 primitive gaussians,    25 cartesian basis functions
     5 alpha electrons        5 beta electrons
       nuclear repulsion energy         9.1080760686 Hartrees.
 IExCor=  402 DFT=T Ex+Corr=B3LYP ExCW=0 ScaHFX=  0.200000
 ScaDFX=  0.800000  0.720000  1.000000  0.810000 ScalE2=  1.000000  1.000000
 IRadAn=      5 IRanWt=     -1 IRanGd=            0 ICorTp=0 IEmpDi=141
 NAtoms=    3 NActive=    3 NUniq=    3 SFac= 1.00D+00 NAtFMM=   60 NAOKFM=F Big=F
 Integral buffers will be    131072 words long.
 Raffenetti 2 integral format.
 Two-electron integral symmetry is turned on.
 R6Disp:  Grimme-D3(BJ) Dispersion energy=       -0.0005739489 Hartrees.
 Nuclear repulsion after empirical dispersion term =        9.1075021197 Hartrees.
 Leave Link  301 at Mon Mar 24 13:50:33 2025, MaxMem=   104857600 cpu:               0.1 elap:               0.1
 (Enter /opt/software/gaussian/g16.c01/l302.exe)
 NPDir=0 NMtPBC=     1 NCelOv=     1 NCel=       1 NClECP=     1 NCelD=      1
         NCelK=      1 NCelE2=     1 NClLst=     1 CellRange=     0.0.
 One-electron integrals computed using PRISM.
 One-electron integral symmetry used in STVInt
   2 Symmetry operations used in ECPInt.
 ECPInt:  NShTT=      78 NPrTT=     272 LenC2=      79 LenP2D=     271.
 LDataN:  DoStor=T MaxTD1= 4 Len=   56
 NBasis=    24 RedAO= T EigKep=  3.79D-02  NBF=    18     6
 NBsUse=    24 1.00D-06 EigRej= -1.00D+00 NBFU=    18     6
 Precomputing XC quadrature grid using
 IXCGrd= 4 IRadAn=           5 IRanWt=          -1 IRanGd=           0 AccXCQ= 0.00D+00.
 Generated NRdTot=       0 NPtTot=           0 NUsed=           0 NTot=          32
 NSgBfM=    25    25    25    25    25 MxSgAt=     3 MxSgA2=     3.
 Leave Link  302 at Mon Mar 24 13:50:33 2025, MaxMem=   104857600 cpu:               0.1 elap:               0.1
 (Enter /opt/software/gaussian/g16.c01/l303.exe)
 DipDrv:  MaxL=1.
 Leave Link  303 at Mon Mar 24 13:50:33 2025, MaxMem=   104857600 cpu:               0.0 elap:               0.0
 (Enter /opt/software/gaussian/g16.c01/l401.exe)
 Initial guess from the checkpoint file:  "/localscratch/nrob.28214068.0/Gau-245979.chk"
 B after Tr=     0.000000   -0.000000   -0.000000
         Rot=    1.000000    0.000000    0.000000    0.000000 Ang=   0.00 deg.
 Guess basis will be translated and rotated to current coordinates.
 JPrj=2 DoOrth=T DoCkMO=T.
 Initial guess orbital symmetries:
       Occupied  (A') (A') (A') (A') (A")
       Virtual   (A') (A') (A') (A') (A') (A") (A') (A') (A") (A')
                 (A") (A') (A') (A') (A") (A") (A') (A') (A')
 The electronic state of the initial guess is 1-A'.
 Leave Link  401 at Mon Mar 24 13:50:33 2025, MaxMem=   104857600 cpu:               0.1 elap:               0.1
 (Enter /opt/software/gaussian/g16.c01/l502.exe)
 Keep R1 ints in memory in symmetry-blocked form, NReq=909846.
 FoFCou: FMM=F IPFlag=           0 FMFlag=           0 FMFlg1=           0
         NFxFlg=           0 DoJE=F BraDBF=F KetDBF=F FulRan=T
         wScrn=  0.000000 ICntrl=       600 IOpCl=  0 I1Cent=           0 NGrid=           0
         NMat0=    1 NMatS0=    300 NMatT0=    0 NMatD0=    1 NMtDS0=    0 NMtDT0=    0
 Petite list used in FoFCou.
 Closed shell SCF:
 Using DIIS extrapolation, IDIIS=  1040.
 NGot=   104857600 LenX=   104830307 LenY=   104829241
 Requested convergence on RMS density matrix=1.00D-08 within 128 cycles.
 Requested convergence on MAX density matrix=1.00D-06.
 Requested convergence on             energy=1.00D-06.
 No special actions if energy rises.

 Cycle   1  Pass 1  IDiag  1:
 E= -76.3588894371968    
 DIIS: error= 9.31D-05 at cycle   1 NSaved=   1.
 NSaved= 1 IEnMin= 1 EnMin= -76.3588894371968     IErMin= 1 ErrMin= 9.31D-05
 ErrMax= 9.31D-05  0.00D+00 EMaxC= 1.00D-01 BMatC= 2.56D-07 BMatP= 2.56D-07
 IDIUse=1 WtCom= 1.00D+00 WtEn= 0.00D+00
 Coeff-Com:  0.100D+01
 Coeff:      0.100D+01
 Gap=     0.336 Goal=   None    Shift=    0.000
 RMSDP=3.40D-05 MaxDP=2.29D-04              OVMax= 2.12D-04

 Cycle   2  Pass 1  IDiag  1:
 E= -76.3588896765969     Delta-E=       -0.000000239400 Rises=F Damp=F
 DIIS: error= 2.06D-05 at cycle   2 NSaved=   2.
 NSaved= 2 IEnMin= 2 EnMin= -76.3588896765969     IErMin= 2 ErrMin= 2.06D-05
 ErrMax= 2.06D-05  0.00D+00 EMaxC= 1.00D-01 BMatC= 1.06D-08 BMatP= 2.56D-07
 IDIUse=1 WtCom= 1.00D+00 WtEn= 0.00D+00
 Coeff-Com:  0.619D-01 0.938D+00
 Coeff:      0.619D-01 0.938D+00
 Gap=     0.337 Goal=   None    Shift=    0.000
 RMSDP=5.80D-06 MaxDP=4.97D-05 DE=-2.39D-07 OVMax= 5.53D-05

 Cycle   3  Pass 1  IDiag  1:
 E= -76.3588896741173     Delta-E=        0.000000002480 Rises=F Damp=F
 DIIS: error= 2.19D-05 at cycle   3 NSaved=   3.
 NSaved= 3 IEnMin= 2 EnMin= -76.3588896765969     IErMin= 2 ErrMin= 2.06D-05
 ErrMax= 2.19D-05  0.00D+00 EMaxC= 1.00D-01 BMatC= 1.46D-08 BMatP= 1.06D-08
 IDIUse=1 WtCom= 1.00D+00 WtEn= 0.00D+00
 Coeff-Com:  0.339D-03 0.541D+00 0.459D+00
 Coeff:      0.339D-03 0.541D+00 0.459D+00
 Gap=     0.336 Goal=   None    Shift=    0.000
 RMSDP=3.19D-06 MaxDP=2.68D-05 DE= 2.48D-09 OVMax= 3.00D-05

 Cycle   4  Pass 1  IDiag  1:
 E= -76.3588896844328     Delta-E=       -0.000000010316 Rises=F Damp=F
 DIIS: error= 1.69D-06 at cycle   4 NSaved=   4.
 NSaved= 4 IEnMin= 4 EnMin= -76.3588896844328     IErMin= 4 ErrMin= 1.69D-06
 ErrMax= 1.69D-06  0.00D+00 EMaxC= 1.00D-01 BMatC= 5.61D-11 BMatP= 1.06D-08
 IDIUse=1 WtCom= 1.00D+00 WtEn= 0.00D+00
 Coeff-Com: -0.324D-02 0.920D-01 0.109D+00 0.802D+00
 Coeff:     -0.324D-02 0.920D-01 0.109D+00 0.802D+00
 Gap=     0.336 Goal=   None    Shift=    0.000
 RMSDP=2.06D-07 MaxDP=1.60D-06 DE=-1.03D-08 OVMax= 2.25D-06

 Cycle   5  Pass 1  IDiag  1:
 E= -76.3588896844718     Delta-E=       -0.000000000039 Rises=F Damp=F
 DIIS: error= 1.61D-07 at cycle   5 NSaved=   5.
 NSaved= 5 IEnMin= 5 EnMin= -76.3588896844718     IErMin= 5 ErrMin= 1.61D-07
 ErrMax= 1.61D-07  0.00D+00 EMaxC= 1.00D-01 BMatC= 4.83D-13 BMatP= 5.61D-11
 IDIUse=1 WtCom= 1.00D+00 WtEn= 0.00D+00
 Coeff-Com: -0.264D-03-0.546D-03 0.262D-02 0.105D+00 0.894D+00
 Coeff:     -0.264D-03-0.546D-03 0.262D-02 0.105D+00 0.894D+00
 Gap=     0.336 Goal=   None    Shift=    0.000
 RMSDP=1.95D-08 MaxDP=1.33D-07 DE=-3.90D-11 OVMax= 2.22D-07

 Cycle   6  Pass 1  IDiag  1:
 E= -76.3588896844720     Delta-E=       -0.000000000000 Rises=F Damp=F
 DIIS: error= 4.80D-09 at cycle   6 NSaved=   6.
 NSaved= 6 IEnMin= 6 EnMin= -76.3588896844720     IErMin= 6 ErrMin= 4.80D-09
 ErrMax= 4.80D-09  0.00D+00 EMaxC= 1.00D-01 BMatC= 5.23D-16 BMatP= 4.83D-13
 IDIUse=1 WtCom= 1.00D+00 WtEn= 0.00D+00
 Coeff-Com:  0.141D-04-0.233D-03-0.240D-03-0.570D-02-0.393D-01 0.105D+01
 Coeff:      0.141D-04-0.233D-03-0.240D-03-0.570D-02-0.393D-01 0.105D+01
 Gap=     0.336 Goal=   None    Shift=    0.000
 RMSDP=1.92D-09 MaxDP=1.07D-08 DE=-2.84D-13 OVMax= 2.56D-08

 SCF Done:  E(RB3LYP) =  -76.3588896845     A.U. after    6 cycles
            NFock=  6  Conv=0.19D-08     -V/T= 2.0069
 KE= 7.583618251375D+01 PE=-1.987998692745D+02 EE= 3.749729495658D+01
 Leave Link  502 at Mon Mar 24 13:50:33 2025, MaxMem=   104857600 cpu:               0.5 elap:               0.5
 (Enter /opt/software/gaussian/g16.c01/l701.exe)
 ... and contract with generalized density number  0.
 Compute integral first derivatives.
 R6Disp: Adding Grimme-D3(BJ) dispersion energy 1st derivatives to the gradient.
   2 Symmetry operations used in ECPInt.
 ECPInt:  NShTT=      78 NPrTT=     272 LenC2=      79 LenP2D=     271.
 LDataN:  DoStor=T MaxTD1= 5 Len=  102
 Leave Link  701 at Mon Mar 24 13:50:34 2025, MaxMem=   104857600 cpu:               0.1 elap:               0.1
 (Enter /opt/software/gaussian/g16.c01/l702.exe)
 L702 exits ... SP integral derivatives will be done elsewhere.
 Leave Link  702 at Mon Mar 24 13:50:34 2025, MaxMem=   104857600 cpu:               0.0 elap:               0.0
 (Enter /opt/software/gaussian/g16.c01/l703.exe)
 Integral derivatives from FoFJK, PRISM(SPDF).
 Compute integral first derivatives, UseDBF=F ICtDFT=           0.
 Calling FoFJK, ICntrl=      2127 FMM=F ISym2X=1 I1Cent= 0 IOpClX= 0 NMat=1 NMatS=1 NMatT=0.
 FoFJK:  IHMeth= 1 ICntrl=    2127 DoSepK=F KAlg= 0 I1Cent=           0 FoldK=F
 IRaf=         0 NMat=       1 IRICut=       1 DoRegI=T DoRafI=F ISym2E= 1 IDoP0=0 IntGTp=1.
 FoFCou: FMM=F IPFlag=           0 FMFlag=      100000 FMFlg1=         800
         NFxFlg=           0 DoJE=F BraDBF=F KetDBF=F FulRan=T
         wScrn=  0.000000 ICntrl=      2127 IOpCl=  0 I1Cent=           0 NGrid=           0
         NMat0=    1 NMatS0=      1 NMatT0=    0 NMatD0=    1 NMtDS0=    0 NMtDT0=    0
 Petite list used in FoFCou.
 Leave Link  703 at Mon Mar 24 13:50:34 2025, MaxMem=   104857600 cpu:               0.2 elap:               0.2
 (Enter /opt/software/gaussian/g16.c01/l716.exe)
 Dipole        = 1.95708449D-09-7.88652439D-01 3.77956046D-18
 ***** Axes restored to original set *****
 -------------------------------------------------------------------
 Center     Atomic                   Forces (Hartrees/Bohr)
 Number     Number              X              Y              Z
 -------------------------------------------------------------------
      1        8           0.000010659   -0.000011026   -0.000005043
      2        1          -0.000005637    0.000007509   -0.000002481
      3        1          -0.000005021    0.000003517    0.000007525
 -------------------------------------------------------------------
 Cartesian Forces:  Max     0.000011026 RMS     0.000007064
 Leave Link  716 at Mon Mar 24 13:50:34 2025, MaxMem=   104857600 cpu:               0.0 elap:               0.0
 (Enter /opt/software/gaussian/g16.c01/l103.exe)

 GradGradGradGradGradGradGradGradGradGradGradGradGradGradGradGradGradGrad
 Berny optimization.
 Using GEDIIS/GDIIS optimizer.
 FormGI is forming the generalized inverse of G from B-inverse, IUseBI=4.
 Internal  Forces:  Max     0.000009248 RMS     0.000008171
 Search for a local minimum.
 Step number   3 out of a maximum of   20
 All quantities printed in internal units (Hartrees-Bohrs-Radians)
 RMS Force = .81708D-05 SwitMx=.10000D-02 MixMth= 2
 Mixed Optimization -- En-DIIS/RFO-DIIS
 Swapping is turned off.
 Update second derivatives using D2CorX and points    1    2    3
 DE= -6.52D-07 DEPred=-6.56D-07 R= 9.94D-01
 Trust test= 9.94D-01 RLast= 2.09D-03 DXMaxT set to 3.00D-01
 The second derivative matrix:
                          R1        R2        A1
           R1           0.54898
           R2           0.01316   0.54898
           A1           0.01629   0.01629   0.17550
 ITU=  0  1  0
     Eigenvalues ---    0.17414   0.53582   0.56351
 En-DIIS/RFO-DIIS/Sim-DIIS IScMMF=       -3 using points:     3    2
 RFO step:  Lambda= 0.00000000D+00.
 NNeg= 0 NGDIIS= 2 SimSw=  2.50D-03 Rises=F DC= -6.52D-07 SmlDif=  1.00D-05
 NRisDI= 0 DoIntr=F SqrtH=F CThrHd= 10.0 CDAdj=  3.0
 RMS Error=  0.2429773182D-04 NUsed= 2 OKEnD=F EnDIS=F
 InvSVX:  RCond= 4.93D-06 Info=           0 Equed=N FErr=  8.96D-16 BErr=  3.18D-17
 DidBck=F Rises=F RFO-DIIS coefs:    0.99196    0.00804
 Iteration  1 RMS(Cart)=  0.00001726 RMS(Int)=  0.00000000
 Iteration  2 RMS(Cart)=  0.00000000 RMS(Int)=  0.00000000
 ITry= 1 IFail=0 DXMaxC= 1.60D-05 DCOld= 1.00D+10 DXMaxT= 3.00D-01 DXLimC= 3.00D+00 Rises=F
 ClnCor:  largest displacement from symmetrization is 1.18D-15 for atom     3.
 Variable       Old X    -DE/DX   Delta X   Delta X   Delta X     New X
                                 (Linear)    (Quad)   (Total)
    R1        1.82678   0.00001  -0.00001   0.00002   0.00002   1.82680
    R2        1.82678   0.00001  -0.00001   0.00002   0.00002   1.82680
    A1        1.79930  -0.00001  -0.00001  -0.00002  -0.00003   1.79927
         Item               Value     Threshold  Converged?
 Maximum Force            0.000009     0.000450     YES
 RMS     Force            0.000008     0.000300     YES
 Maximum Displacement     0.000016     0.001800     YES
 RMS     Displacement     0.000017     0.001200     YES
 Predicted change in Energy=-2.535641D-10
 Optimization completed.
    -- Stationary point found.
                           ----------------------------
                           !   Optimized Parameters   !
                           ! (Angstroms and Degrees)  !
 --------------------------                            --------------------------
 ! Name  Definition              Value          Derivative Info.                !
 --------------------------------------------------------------------------------
 ! R1    R(1,2)                  0.9667         -DE/DX =    0.0                 !
 ! R2    R(1,3)                  0.9667         -DE/DX =    0.0                 !
 ! A1    A(2,1,3)              103.0923         -DE/DX =    0.0                 !
 --------------------------------------------------------------------------------
 Lowest energy point so far.  Saving SCF results.
 Largest change from initial coordinates is atom    2       0.007 Angstoms.
 GradGradGradGradGradGradGradGradGradGradGradGradGradGradGradGradGradGrad

 Leave Link  103 at Mon Mar 24 13:50:34 2025, MaxMem=   104857600 cpu:               0.0 elap:               0.0
 (Enter /opt/software/gaussian/g16.c01/l202.exe)
                          Input orientation:                          
 ---------------------------------------------------------------------
 Center     Atomic      Atomic             Coordinates (Angstroms)
 Number     Number       Type             X           Y           Z
 ---------------------------------------------------------------------
      1          8           0        0.127837    2.823892   -0.010983
      2          1           0       -0.312129    3.514268   -0.525088
      3          1           0       -0.226033    2.954557    0.879071
 ---------------------------------------------------------------------
                    Distance matrix (angstroms):
                    1          2          3
     1  O    0.000000
     2  H    0.966692   0.000000
     3  H    0.966692   1.514051   0.000000
 Stoichiometry    H2O
 Framework group  CS[SG(H2O)]
 Deg. of freedom     3
 Full point group                 CS      NOp   2
 RotChk:  IX=0 Diff= 6.71D-16
 Largest Abelian subgroup         CS      NOp   2
 Largest concise Abelian subgroup C1      NOp   1
                         Standard orientation:                         
 ---------------------------------------------------------------------
 Center     Atomic      Atomic             Coordinates (Angstroms)
 Number     Number       Type             X           Y           Z
 ---------------------------------------------------------------------
      1          8           0        0.000000    0.120234   -0.000000
      2          1           0        0.757025   -0.480936    0.000000
      3          1           0       -0.757025   -0.480936   -0.000000
 ---------------------------------------------------------------------
 Rotational constants (GHZ):         781.1817484         437.5030848         280.4411899
 Leave Link  202 at Mon Mar 24 13:50:34 2025, MaxMem=   104857600 cpu:               0.0 elap:               0.0
 (Enter /opt/software/gaussian/g16.c01/l601.exe)
 Copying SCF densities to generalized density rwf, IOpCl= 0 IROHF=0.

 **********************************************************************

            Population analysis using the SCF Density.

 **********************************************************************

 Orbital symmetries:
       Occupied  (A') (A') (A') (A') (A")
       Virtual   (A') (A') (A') (A') (A') (A") (A') (A') (A") (A')
                 (A") (A') (A') (A') (A") (A") (A') (A') (A')
 The electronic state is 1-A'.
 Alpha  occ. eigenvalues --  -19.11966  -0.97980  -0.51161  -0.36791  -0.29167
 Alpha virt. eigenvalues --    0.04480   0.12389   0.55509   0.62051   0.91734
 Alpha virt. eigenvalues --    0.92035   1.00686   1.09514   1.34768   1.39537
 Alpha virt. eigenvalues --    1.54218   1.78667   2.19879   2.24598   2.96049
 Alpha virt. eigenvalues --    2.99667   3.18473   3.48351   3.82044
          Condensed to atoms (all electrons):
               1          2          3
     1  O    7.645998   0.324249   0.324249
     2  H    0.324249   0.561497  -0.032994
     3  H    0.324249  -0.032994   0.561497
 Mulliken charges:
               1
     1  O   -0.294496
     2  H    0.147248
     3  H    0.147248
 Sum of Mulliken charges =   0.00000
 Mulliken charges with hydrogens summed into heavy atoms:
               1
     1  O    0.000000
 Electronic spatial extent (au):  <R**2>=             19.0147
 Charge=              0.0000 electrons
 Dipole moment (field-independent basis, Debye):
    X=              0.0000    Y=             -2.0046    Z=              0.0000  Tot=              2.0046
 Quadrupole moment (field-independent basis, Debye-Ang):
   XX=             -4.3525   YY=             -5.9371   ZZ=             -7.0031
   XY=              0.0000   XZ=             -0.0000   YZ=             -0.0000
 Traceless Quadrupole moment (field-independent basis, Debye-Ang):
   XX=              1.4118   YY=             -0.1728   ZZ=             -1.2389
   XY=              0.0000   XZ=             -0.0000   YZ=             -0.0000
 Octapole moment (field-independent basis, Debye-Ang**2):
  XXX=              0.0000  YYY=             -1.0655  ZZZ=              0.0000  XYY=             -0.0000
  XXY=             -1.1067  XXZ=              0.0000  XZZ=              0.0000  YZZ=             -0.2768
  YYZ=              0.0000  XYZ=              0.0000
 Hexadecapole moment (field-independent basis, Debye-Ang**3):
 XXXX=             -6.2003 YYYY=             -6.1589 ZZZZ=             -4.8418 XXXY=             -0.0000
 XXXZ=             -0.0000 YYYX=             -0.0000 YYYZ=             -0.0000 ZZZX=             -0.0000
 ZZZY=              0.0000 XXYY=             -1.7272 XXZZ=             -2.0919 YYZZ=             -1.8882
 XXYZ=             -0.0000 YYXZ=             -0.0000 ZZXY=             -0.0000
 N-N= 9.107502119713D+00 E-N=-1.987998693447D+02  KE= 7.583618251375D+01
 Symmetry A'   KE= 7.120490104276D+01
 Symmetry A"   KE= 4.631281470989D+00
 No NMR shielding tensors so no spin-rotation constants.
 Leave Link  601 at Mon Mar 24 13:50:34 2025, MaxMem=   104857600 cpu:               0.1 elap:               0.1
 (Enter /opt/software/gaussian/g16.c01/l9999.exe)
 Unable to Open any file for archive entry.
 1\1\GINC-GRA129\FOpt\RB3LYP\def2SVP\H2O1\NROB\24-Mar-2025\0\\#P B3LYP/
 Def2SVP EmpiricalDispersion=GD3BJ Opt\\water\\0,1\O,0.1278374544,2.823
 8919744,-0.0109830891\H,-0.3121291859,3.5142682561,-0.5250876129\H,-0.
 2260332684,2.9545567694,0.879070702\\Version=ES64L-G16RevC.01\State=1-
 A'\HF=-76.3588897\RMSD=1.919e-09\RMSF=7.064e-06\Dipole=-0.5207023,0.53
 85461,0.2465967\Quadrupole=-0.5692206,-0.282186,0.8514066,-0.3987769,-
 0.059698,-0.5064155\PG=CS [SG(H2O1)]\\@
 The archive entry for this job was punched.


 IF YOU PERCEIVE THAT THERE ARE FOUR POSSIBLE WAYS IN
 WHICH A PROCEDURE CAN GO WRONG AND CIRCUMVENT THESE, 
 THEN A FIFTH WAY WILL DEVELOP.

                              -- MURPHY'S TWELFTH LAW
 Job cpu time:       0 days  0 hours  0 minutes  5.2 seconds.
 Elapsed time:       0 days  0 hours  0 minutes  4.4 seconds.
 File lengths (MBytes):  RWF=      6 Int=      0 D2E=      0 Chk=      1 Scr=      1
 Normal termination of Gaussian 16 at Mon Mar 24 13:50:34 2025.
