
                                 *****************
                                 * O   R   C   A *
                                 *****************

                                            #,                                       
                                            ###                                      
                                            ####                                     
                                            #####                                    
                                            ######                                   
                                           ########,                                 
                                     ,,################,,,,,                         
                               ,,#################################,,                 
                          ,,##########################################,,             
                       ,#########################################, ''#####,          
                    ,#############################################,,   '####,        
                  ,##################################################,,,,####,       
                ,###########''''           ''''###############################       
              ,#####''   ,,,,##########,,,,          '''####'''          '####       
            ,##' ,,,,###########################,,,                        '##       
           ' ,,###''''                  '''############,,,                           
         ,,##''                                '''############,,,,        ,,,,,,###''
      ,#''                                            '''#######################'''  
     '                                                          ''''####''''         
             ,#######,   #######,   ,#######,      ##                                
            ,#'     '#,  ##    ##  ,#'     '#,    #''#        ######   ,####,        
            ##       ##  ##   ,#'  ##            #'  '#       #        #'  '#        
            ##       ##  #######   ##           ,######,      #####,   #    #        
            '#,     ,#'  ##    ##  '#,     ,#' ,#      #,         ##   #,  ,#        
             '#######'   ##     ##  '#######'  #'      '#     #####' # '####'        



                  #######################################################
                  #                        -***-                        #
                  #          Department of theory and spectroscopy      #
                  #    Directorship and core code : Frank Neese         #
                  #        Max Planck Institute fuer Kohlenforschung    #
                  #                Kaiser Wilhelm Platz 1               #
                  #                 D-45470 Muelheim/Ruhr               #
                  #                      Germany                        #
                  #                                                     #
                  #                  All rights reserved                #
                  #                        -***-                        #
                  #######################################################


                         Program Version 5.0.4 -  RELEASE  -


 With contributions from (in alphabetic order):
   Daniel Aravena         : Magnetic Suceptibility
   Michael Atanasov       : Ab Initio Ligand Field Theory (pilot matlab implementation)
   Alexander A. Auer      : GIAO ZORA, VPT2 properties, NMR spectrum
   Ute Becker             : Parallelization
   Giovanni Bistoni       : ED, misc. LED, open-shell LED, HFLD
   Martin Brehm           : Molecular dynamics
   Dmytro Bykov           : SCF Hessian
   Vijay G. Chilkuri      : MRCI spin determinant printing, contributions to CSF-ICE
   Dipayan Datta          : RHF DLPNO-CCSD density
   Achintya Kumar Dutta   : EOM-CC, STEOM-CC
   Dmitry Ganyushin       : Spin-Orbit,Spin-Spin,Magnetic field MRCI
   Miquel Garcia          : C-PCM and meta-GGA Hessian, CC/C-PCM, Gaussian charge scheme
   Yang Guo               : DLPNO-NEVPT2, F12-NEVPT2, CIM, IAO-localization
   Andreas Hansen         : Spin unrestricted coupled pair/coupled cluster methods
   Benjamin Helmich-Paris : MC-RPA, TRAH-SCF, COSX integrals
   Lee Huntington         : MR-EOM, pCC
   Robert Izsak           : Overlap fitted RIJCOSX, COSX-SCS-MP3, EOM
   Marcus Kettner         : VPT2
   Christian Kollmar      : KDIIS, OOCD, Brueckner-CCSD(T), CCSD density, CASPT2, CASPT2-K
   Simone Kossmann        : Meta GGA functionals, TD-DFT gradient, OOMP2, MP2 Hessian
   Martin Krupicka        : Initial AUTO-CI
   Lucas Lang             : DCDCAS
   Marvin Lechner         : AUTO-CI (C++ implementation), FIC-MRCC
   Dagmar Lenk            : GEPOL surface, SMD
   Dimitrios Liakos       : Extrapolation schemes; Compound Job, initial MDCI parallelization
   Dimitrios Manganas     : Further ROCIS development; embedding schemes
   Dimitrios Pantazis     : SARC Basis sets
   Anastasios Papadopoulos: AUTO-CI, single reference methods and gradients
   Taras Petrenko         : DFT Hessian,TD-DFT gradient, ASA, ECA, R-Raman, ABS, FL, XAS/XES, NRVS
   Peter Pinski           : DLPNO-MP2, DLPNO-MP2 Gradient
   Christoph Reimann      : Effective Core Potentials
   Marius Retegan         : Local ZFS, SOC
   Christoph Riplinger    : Optimizer, TS searches, QM/MM, DLPNO-CCSD(T), (RO)-DLPNO pert. Triples
   Tobias Risthaus        : Range-separated hybrids, TD-DFT gradient, RPA, STAB
   Michael Roemelt        : Original ROCIS implementation
   Masaaki Saitow         : Open-shell DLPNO-CCSD energy and density
   Barbara Sandhoefer     : DKH picture change effects
   Avijit Sen             : IP-ROCIS
   Kantharuban Sivalingam : CASSCF convergence, NEVPT2, FIC-MRCI
   Bernardo de Souza      : ESD, SOC TD-DFT
   Georgi Stoychev        : AutoAux, RI-MP2 NMR, DLPNO-MP2 response
   Willem Van den Heuvel  : Paramagnetic NMR
   Boris Wezisla          : Elementary symmetry handling
   Frank Wennmohs         : Technical directorship


 We gratefully acknowledge several colleagues who have allowed us to
 interface, adapt or use parts of their codes:
   Stefan Grimme, W. Hujo, H. Kruse, P. Pracht,  : VdW corrections, initial TS optimization,
                  C. Bannwarth, S. Ehlert          DFT functionals, gCP, sTDA/sTD-DF
   Ed Valeev, F. Pavosevic, A. Kumar             : LibInt (2-el integral package), F12 methods
   Garnet Chan, S. Sharma, J. Yang, R. Olivares  : DMRG
   Ulf Ekstrom                                   : XCFun DFT Library
   Mihaly Kallay                                 : mrcc  (arbitrary order and MRCC methods)
   Jiri Pittner, Ondrej Demel                    : Mk-CCSD
   Frank Weinhold                                : gennbo (NPA and NBO analysis)
   Christopher J. Cramer and Donald G. Truhlar   : smd solvation model
   Lars Goerigk                                  : TD-DFT with DH, B97 family of functionals
   V. Asgeirsson, H. Jonsson                     : NEB implementation
   FAccTs GmbH                                   : IRC, NEB, NEB-TS, DLPNO-Multilevel, CI-OPT
                                                   MM, QMMM, 2- and 3-layer-ONIOM, Crystal-QMMM,
                                                   LR-CPCM, SF, NACMEs, symmetry and pop. for TD-DFT,
                                                   nearIR, NL-DFT gradient (VV10), updates on ESD,
                                                   ML-optimized integration grids
   S Lehtola, MJT Oliveira, MAL Marques          : LibXC Library
   Liviu Ungur et al                             : ANISO software


 Your calculation uses the libint2 library for the computation of 2-el integrals
 For citations please refer to: http://libint.valeyev.net

 Your ORCA version has been built with support for libXC version: 5.1.0
 For citations please refer to: https://tddft.org/programs/libxc/

 This ORCA versions uses:
   CBLAS   interface :  Fast vector & matrix operations
   LAPACKE interface :  Fast linear algebra routines
   SCALAPACK package :  Parallel linear algebra routines
   Shared memory     :  Shared parallel matrices
   BLAS/LAPACK       :  OpenBLAS 0.3.15  USE64BITINT DYNAMIC_ARCH NO_AFFINITY Zen SINGLE_THREADED
        Core in use  :  Zen
   Copyright (c) 2011-2014, The OpenBLAS Project


Your calculation utilizes the atom-pairwise dispersion correction
with the Becke-Johnson damping scheme (D3BJ)
Cite in your paper:
S.Grimme, S.Ehrlich, L.Goerigk, J Comput Chem, (2011), 32, 1456–1465 
S.Grimme, J.Antony, S.Ehrlich and H.Krieg, J.Chem.Phys., 132, (2010), 154104 
   

Your calculation utilizes the SMD solvation module
Please cite in your paper:
A.V. Marenich, C.J. Cramer, D.G. Truhlar J. Phys. Chem. B, 113, (2009), 6378 

================================================================================

----- Orbital basis set information -----
Your calculation utilizes the basis: def2-SVP
   F. Weigend and R. Ahlrichs, Phys. Chem. Chem. Phys. 7, 3297 (2005).

The basis set includes element-specific modifications.

Your calculation utilizes the basis: def2-SVPD
   F. Weigend and R. Ahlrichs, Phys. Chem. Chem. Phys. 7, 3297 (2005).
   D. Rappoport and F. Furche, J. Chem. Phys. 133 134105 (2010).

----- AuxJ basis set information -----
Your calculation utilizes the auxiliary basis: def2/J
   F. Weigend, Phys. Chem. Chem. Phys. 8, 1057 (2006).

================================================================================
                                        WARNINGS
                       Please study these warnings very carefully!
================================================================================


WARNING: Geometry Optimization
  ===> : Switching off AutoStart
         For restart on a previous wavefunction, please use MOREAD

INFO   : the flag for use of the SHARK integral package has been found!

================================================================================
                                       INPUT FILE
================================================================================
NAME = Ar-B-diOH.inp
|  1> # SMD for more accurate results
|  2> ! PBE0 D3BJ def2-SVP CPCM printbasis
|  3> ! tightopt
|  4> 
|  5> %basis
|  6>   newgto O "def2-SVPD" end
|  7> end
|  8> 
|  9> %cpcm
| 10>   smd true
| 11>   SMDsolvent "BENZENE"
| 12> end
| 13> 
| 14> %pal
| 15>   nprocs 4
| 16> end
| 17> 
| 18> %maxcore 1500
| 19> 
| 20> * xyz 0 1
| 21> H      2.54728    0.20956    3.17587
| 22> C      2.00997    0.13565    2.23961
| 23> C      2.70455    0.05380    1.04198
| 24> H      3.78560    0.06317    1.03572
| 25> C      1.99518   -0.04025   -0.14889
| 26> H      2.52488   -0.10482   -1.09020
| 27> C      0.61074   -0.05292   -0.15019
| 28> H      0.05066   -0.12586   -1.07181
| 29> C     -0.07985    0.02949    1.05465
| 30> C      0.62304    0.12396    2.25187
| 31> H      0.08681    0.18851    3.19210
| 32> B     -1.44543    0.01313    1.00059
| 33> O     -1.79061   -0.07203   -0.11408
| 34> O     -1.84870   -0.90398    1.60489
| 35> H     -1.56842   -0.83483    2.50997
| 36> H     -1.46317    0.67263   -0.60476
| 37> *
| 38> 
| 39>                          ****END OF INPUT****
================================================================================

                       *****************************
                       * Geometry Optimization Run *
                       *****************************

Geometry optimization settings:
Update method            Update   .... BFGS
Choice of coordinates    CoordSys .... Z-matrix Internals
Initial Hessian          InHess   .... Almoef's Model

Convergence Tolerances:
Energy Change            TolE     ....  1.0000e-06 Eh
Max. Gradient            TolMAXG  ....  1.0000e-04 Eh/bohr
RMS Gradient             TolRMSG  ....  3.0000e-05 Eh/bohr
Max. Displacement        TolMAXD  ....  1.0000e-03 bohr
RMS Displacement         TolRMSD  ....  6.0000e-04 bohr
Strict Convergence                ....  False
------------------------------------------------------------------------------
                        ORCA OPTIMIZATION COORDINATE SETUP
------------------------------------------------------------------------------

The optimization will be done in new redundant internal coordinates
Making redundant internal coordinates   ...  (new redundants) done
Evaluating the initial hessian          ...  (Almloef) done
Evaluating the coordinates              ...  done
Calculating the B-matrix                .... done
Calculating the G-matrix                .... done
Diagonalizing the G-matrix              .... done
The first mode is                       ....   39
The number of degrees of freedom        ....   42

    -----------------------------------------------------------------
                    Redundant Internal Coordinates


    -----------------------------------------------------------------
         Definition                    Initial Value    Approx d2E/dq
    -----------------------------------------------------------------
      1. B(C   1,H   0)                  1.0820         0.370825   
      2. B(C   2,C   1)                  1.3869         0.631980   
      3. B(H   3,C   2)                  1.0811         0.372056   
      4. B(C   4,C   2)                  1.3893         0.626349   
      5. B(H   5,C   4)                  1.0820         0.370782   
      6. B(C   6,C   4)                  1.3845         0.637552   
      7. B(H   7,C   6)                  1.0809         0.372311   
      8. B(C   8,C   6)                  1.3912         0.622124   
      9. B(C   9,C   8)                  1.3915         0.621328   
     10. B(C   9,C   1)                  1.3870         0.631643   
     11. B(H  10,C   9)                  1.0843         0.367698   
     12. B(B  11,C   8)                  1.3667         0.788232   
     13. B(O  12,B  11)                  1.1700         1.454438   
     14. B(O  13,O  12)                  1.9106         0.074035   
     15. B(O  13,B  11)                  1.1700         1.454426   
     16. B(H  14,O  13)                  0.9500         0.539404   
     17. B(H  15,O  12)                  0.9500         0.539410   
     18. A(H   0,C   1,C   2)          120.1687         0.355821   
     19. A(H   0,C   1,C   9)          119.3061         0.355789   
     20. A(C   2,C   1,C   9)          120.5252         0.437026   
     21. A(H   3,C   2,C   4)          120.4098         0.355481   
     22. A(C   1,C   2,C   4)          119.2402         0.436364   
     23. A(C   1,C   2,H   3)          120.3500         0.356021   
     24. A(H   5,C   4,C   6)          119.2193         0.356345   
     25. A(C   2,C   4,C   6)          120.7964         0.437055   
     26. A(C   2,C   4,H   5)          119.9843         0.355274   
     27. A(H   7,C   6,C   8)          119.0262         0.355114   
     28. A(C   4,C   6,C   8)          119.6720         0.436522   
     29. A(C   4,C   6,H   7)          121.3018         0.356594   
     30. A(C   6,C   8,C   9)          119.8948         0.434501   
     31. A(C   9,C   8,B  11)          122.6522         0.457458   
     32. A(C   6,C   8,B  11)          117.4530         0.457565   
     33. A(C   1,C   9,H  10)          120.1098         0.355278   
     34. A(C   1,C   9,C   8)          119.8714         0.435690   
     35. A(C   8,C   9,H  10)          120.0188         0.354288   
     36. A(O  12,B  11,O  13)          109.4710         0.599375   
     37. A(C   8,B  11,O  13)          109.4713         0.536890   
     38. A(C   8,B  11,O  12)          109.4710         0.536891   
     39. A(B  11,O  12,H  15)          109.4716         0.436599   
     40. A(O  13,O  12,H  15)          144.7361         0.262755   
     41. A(B  11,O  12,O  13)           35.2645         0.344122   
     42. A(O  12,O  13,H  14)          144.7352         0.262754   
     43. A(B  11,O  13,H  14)          109.4708         0.436598   
     44. A(B  11,O  13,O  12)           35.2645         0.344122   
     45. D(C   4,C   2,C   1,C   9)      0.0023         0.027704   
     46. D(C   4,C   2,C   1,H   0)   -179.9907         0.027704   
     47. D(H   3,C   2,C   1,C   9)    179.9990         0.027704   
     48. D(H   3,C   2,C   1,H   0)      0.0060         0.027704   
     49. D(H   5,C   4,C   2,C   1)   -179.9945         0.027181   
     50. D(C   6,C   4,C   2,H   3)   -179.9993         0.027181   
     51. D(H   5,C   4,C   2,H   3)      0.0088         0.027181   
     52. D(C   6,C   4,C   2,C   1)     -0.0026         0.027181   
     53. D(C   8,C   6,C   4,H   5)    179.9942         0.028227   
     54. D(C   8,C   6,C   4,C   2)      0.0023         0.028227   
     55. D(H   7,C   6,C   4,H   5)     -0.0047         0.028227   
     56. D(H   7,C   6,C   4,C   2)   -179.9967         0.028227   
     57. D(B  11,C   8,C   6,C   4)    179.9990         0.026793   
     58. D(C   9,C   8,C   6,H   7)    179.9973         0.026793   
     59. D(C   9,C   8,C   6,C   4)     -0.0017         0.026793   
     60. D(B  11,C   8,C   6,H   7)     -0.0021         0.026793   
     61. D(H  10,C   9,C   8,B  11)     -0.0137         0.026720   
     62. D(C   1,C   9,C   8,B  11)   -179.9992         0.026720   
     63. D(C   1,C   9,C   8,C   6)      0.0015         0.026720   
     64. D(H  10,C   9,C   1,C   2)   -179.9873         0.027672   
     65. D(H  10,C   9,C   1,H   0)      0.0058         0.027672   
     66. D(H  10,C   9,C   8,C   6)    179.9869         0.026720   
     67. D(C   8,C   9,C   1,C   2)     -0.0018         0.027672   
     68. D(C   8,C   9,C   1,H   0)    179.9913         0.027672   
     69. D(O  13,B  11,C   8,C   9)    -59.9999         0.036165   
     70. D(O  13,B  11,C   8,C   6)    119.9994         0.036165   
     71. D(O  12,B  11,C   8,C   9)   -179.9996         0.036165   
     72. D(O  12,B  11,C   8,C   6)     -0.0003         0.036165   
     73. D(H  15,O  12,B  11,O  13)   -179.9999         0.172598   
     74. D(H  15,O  12,B  11,C   8)    -60.0001         0.172598   
     75. D(O  13,O  12,B  11,C   8)    119.9998         0.172598   
     76. D(H  14,O  13,O  12,H  15)     -0.0000         0.001868   
     77. D(H  14,O  13,O  12,B  11)     -0.0002         0.001868   
     78. D(B  11,O  13,O  12,H  15)      0.0002         0.001868   
     79. D(H  14,O  13,B  11,O  12)    179.9999         0.172594   
     80. D(H  14,O  13,B  11,C   8)     60.0003         0.172594   
     81. D(O  12,O  13,B  11,C   8)   -119.9996         0.172594   
    -----------------------------------------------------------------

Number of atoms                         .... 16
Number of degrees of freedom            .... 81

         *************************************************************
         *                GEOMETRY OPTIMIZATION CYCLE   1            *
         *************************************************************
---------------------------------
CARTESIAN COORDINATES (ANGSTROEM)
---------------------------------
  H      2.547280    0.209560    3.175870
  C      2.009970    0.135650    2.239610
  C      2.704550    0.053800    1.041980
  H      3.785600    0.063170    1.035720
  C      1.995180   -0.040250   -0.148890
  H      2.524880   -0.104820   -1.090200
  C      0.610740   -0.052920   -0.150190
  H      0.050660   -0.125860   -1.071810
  C     -0.079850    0.029490    1.054650
  C      0.623040    0.123960    2.251870
  H      0.086810    0.188510    3.192100
  B     -1.445430    0.013130    1.000590
  O     -1.790610   -0.072030   -0.114080
  O     -1.848700   -0.903980    1.604890
  H     -1.568420   -0.834830    2.509970
  H     -1.463170    0.672630   -0.604760

----------------------------
CARTESIAN COORDINATES (A.U.)
----------------------------
  NO LB      ZA    FRAG     MASS         X           Y           Z
   0 H     1.0000    0     1.008    4.813662    0.396011    6.001525
   1 C     6.0000    0    12.011    3.798293    0.256341    4.232250
   2 C     6.0000    0    12.011    5.110859    0.101667    1.969057
   3 H     1.0000    0     1.008    7.153747    0.119374    1.957227
   4 C     6.0000    0    12.011    3.770344   -0.076061   -0.281361
   5 H     1.0000    0     1.008    4.771332   -0.198081   -2.060179
   6 C     6.0000    0    12.011    1.154131   -0.100004   -0.283818
   7 H     1.0000    0     1.008    0.095734   -0.237841   -2.025427
   8 C     6.0000    0    12.011   -0.150895    0.055728    1.993000
   9 C     6.0000    0    12.011    1.177375    0.234250    4.255418
  10 H     1.0000    0     1.008    0.164047    0.356232    6.032195
  11 B     5.0000    0    10.810   -2.731467    0.024812    1.890841
  12 O     8.0000    0    15.999   -3.383763   -0.136117   -0.215580
  13 O     8.0000    0    15.999   -3.493537   -1.708275    3.032803
  14 H     1.0000    0     1.008   -2.963884   -1.577600    4.743156
  15 H     1.0000    0     1.008   -2.764991    1.271086   -1.142831

--------------------------------
INTERNAL COORDINATES (ANGSTROEM)
--------------------------------
 H      0   0   0     0.000000000000     0.00000000     0.00000000
 C      1   0   0     1.082010864918     0.00000000     0.00000000
 C      2   1   0     1.386888032900   120.16872936     0.00000000
 H      3   2   1     1.081108730424   120.34997873     0.00000000
 C      3   2   1     1.389324496401   119.24017406   180.00931534
 H      5   3   2     1.082042462660   119.98430356   180.00554945
 C      5   3   2     1.384498585229   120.79640682     0.00000000
 H      7   5   3     1.080922418308   121.30181857   180.00330868
 C      7   5   3     1.391166913709   119.67201077     0.00000000
 C      2   1   3     1.387033448984   119.30607861   180.00690288
 H     10   2   1     1.084316267654   120.10979870     0.00000000
 B      9   7   5     1.366747551525   117.45303363   179.99895852
 O     12   9   7     1.169996011489   109.47097187     0.00000000
 O     12   9   7     1.169998262819   109.47130251   119.99939681
 H     14  12   9     0.950004424884   109.47078303    60.00025945
 H     13  12   9     0.950001227157   109.47155280   299.99993881

---------------------------
INTERNAL COORDINATES (A.U.)
---------------------------
 H      0   0   0     0.000000000000     0.00000000     0.00000000
 C      1   0   0     2.044704208622     0.00000000     0.00000000
 C      2   1   0     2.620838560593   120.16872936     0.00000000
 H      3   2   1     2.042999421494   120.34997873     0.00000000
 C      3   2   1     2.625442809346   119.24017406   180.00931534
 H      5   3   2     2.044763919702   119.98430356   180.00554945
 C      5   3   2     2.616323158883   120.79640682     0.00000000
 H      7   5   3     2.042647342617   121.30181857   180.00330868
 C      7   5   3     2.628924473483   119.67201077     0.00000000
 C      2   1   3     2.621113357168   119.30607861   180.00690288
 H     10   2   1     2.049060788422   120.10979870     0.00000000
 B      9   7   5     2.582778566590   117.45303363   179.99895852
 O     12   9   7     2.210972039494   109.47097187     0.00000000
 O     12   9   7     2.210976293892   109.47130251   119.99939681
 H     14  12   9     1.795248189045   109.47078303    60.00025945
 H     13  12   9     1.795242146216   109.47155280   299.99993881

---------------------
BASIS SET INFORMATION
---------------------
There are 4 groups of distinct atoms

 Group   1 Type H   : 4s1p contracted to 2s1p pattern {31/1}
 Group   2 Type C   : 7s4p1d contracted to 3s2p1d pattern {511/31/1}
 Group   3 Type B   : 7s4p1d contracted to 3s2p1d pattern {511/31/1}
 Group   4 Type O   : 8s5p2d contracted to 4s3p2d pattern {5111/311/11}

Atom   0H    basis set group =>   1
Atom   1C    basis set group =>   2
Atom   2C    basis set group =>   2
Atom   3H    basis set group =>   1
Atom   4C    basis set group =>   2
Atom   5H    basis set group =>   1
Atom   6C    basis set group =>   2
Atom   7H    basis set group =>   1
Atom   8C    basis set group =>   2
Atom   9C    basis set group =>   2
Atom  10H    basis set group =>   1
Atom  11B    basis set group =>   3
Atom  12O    basis set group =>   4
Atom  13O    basis set group =>   4
Atom  14H    basis set group =>   1
Atom  15H    basis set group =>   1

-------------------------
BASIS SET IN INPUT FORMAT
-------------------------

 # Basis set for element : H 
 NewGTO H 
 S 3 
   1      13.0107010000      0.0334854848
   2       1.9622572000      0.2347218709
   3       0.4445379600      0.8137702853
 S 1 
   1       0.1219496200      1.0000000000
 P 1 
   1       0.8000000000      1.0000000000
  end;

 # Basis set for element : B 
 NewGTO B 
 S 5 
   1     839.3183008600     -0.0056288836
   2     126.2646484300     -0.0418327946
   3      28.6206007630     -0.1841748812
   4       7.8793722710     -0.4683965503
   5       2.4088857172     -0.4445793088
 S 1 
   1       0.2510510904      1.0000000000
 S 1 
   1       0.0836488661      1.0000000000
 P 3 
   1       6.0332223619     -0.0540325004
   2       1.2499157866     -0.3019403439
   3       0.3387167635     -0.7717079166
 P 1 
   1       0.0964156324      1.0000000000
 D 1 
   1       0.5000000000      1.0000000000
  end;

 # Basis set for element : C 
 NewGTO C 
 S 5 
   1    1238.4016938000      0.0055173650
   2     186.2900499200      0.0410888285
   3      42.2511763460      0.1822538213
   4      11.6765579320      0.4682845944
   5       3.5930506482      0.4457581734
 S 1 
   1       0.4024514736      1.0000000000
 S 1 
   1       0.1309018267      1.0000000000
 P 3 
   1       9.4680970621      0.0568883320
   2       2.0103545142      0.3129405934
   3       0.5477100471      0.7606501651
 P 1 
   1       0.1526861379      1.0000000000
 D 1 
   1       0.8000000000      1.0000000000
  end;

 # Basis set for element : O 
 NewGTO O 
 S 5 
   1    2266.1767785000     -0.0053893504
   2     340.8701019100     -0.0402347214
   3      77.3631351670     -0.1800818421
   4      21.4796449400     -0.4682885766
   5       6.6589433124     -0.4469261716
 S 1 
   1       0.8097597567      1.0000000000
 S 1 
   1       0.2553077223      1.0000000000
 P 3 
   1      17.7215043170      0.0626302488
   2       3.8635505440      0.3333113849
   3       1.0480920883      0.7414863830
 P 1 
   1       0.2764154441      1.0000000000
 D 1 
   1       1.2000000000      1.0000000000
 S 1 
   1       0.0765724533      1.0000000000
 P 1 
   1       0.0690022764      1.0000000000
 D 1 
   1       0.1799202432      1.0000000000
  end;

---------------------------------
AUXILIARY/J BASIS SET INFORMATION
---------------------------------
There are 4 groups of distinct atoms

 Group   1 Type H   : 5s2p1d contracted to 3s1p1d pattern {311/2/1}
 Group   2 Type C   : 12s5p4d2f1g contracted to 6s4p3d1f1g pattern {711111/2111/211/2/1}
 Group   3 Type B   : 12s5p4d2f1g contracted to 6s4p3d1f1g pattern {711111/2111/211/2/1}
 Group   4 Type O   : 12s5p4d2f1g contracted to 6s4p3d1f1g pattern {711111/2111/211/2/1}

Atom   0H    basis set group =>   1
Atom   1C    basis set group =>   2
Atom   2C    basis set group =>   2
Atom   3H    basis set group =>   1
Atom   4C    basis set group =>   2
Atom   5H    basis set group =>   1
Atom   6C    basis set group =>   2
Atom   7H    basis set group =>   1
Atom   8C    basis set group =>   2
Atom   9C    basis set group =>   2
Atom  10H    basis set group =>   1
Atom  11B    basis set group =>   3
Atom  12O    basis set group =>   4
Atom  13O    basis set group =>   4
Atom  14H    basis set group =>   1
Atom  15H    basis set group =>   1

-------------------------------------
AUXILIARY/J BASIS SET IN INPUT FORMAT
-------------------------------------

 # Auxiliary/J basis set for element : H 
 NewAuxJGTO H 
 S 3 
   1      15.6752927000      0.1007184237
   2       3.6063578000      0.3404257499
   3       1.2080016000      0.6491996172
 S 1 
   1       0.4726794000      1.0000000000
 S 1 
   1       0.2018100000      1.0000000000
 P 2 
   1       2.0281365000      0.5596620919
   2       0.5358730000      0.5596620919
 D 1 
   1       2.2165124000      1.0000000000
  end;

 # Auxiliary/J basis set for element : B 
 NewAuxJGTO B 
 S 7 
   1    1322.2016723000      0.0130721780
   2     458.2370653000      0.0281065289
   3     168.0023641000      0.0968125842
   4      64.9577690000      0.2258335225
   5      26.3871856000      0.3821491110
   6      11.2108611000      0.3266991672
   7       4.9554460000      0.0770367109
 S 1 
   1       2.2652825000     -1.0000000000
 S 1 
   1       1.0638086000      1.0000000000
 S 1 
   1       0.5095187000      1.0000000000
 S 1 
   1       0.2469859000      1.0000000000
 S 1 
   1       0.1202089000      1.0000000000
 P 2 
   1       9.3560736000     -0.5615847160
   2       3.9743131000     -0.4920798837
 P 1 
   1       1.6645147000      1.0000000000
 P 1 
   1       0.6913035000     -1.0000000000
 P 1 
   1       0.2863135000      1.0000000000
 D 2 
   1       2.1120313000      0.3924108444
   2       0.7780769000      0.6972711530
 D 1 
   1       0.3277101000      1.0000000000
 D 1 
   1       0.1449465000      1.0000000000
 F 2 
   1       1.0582718000      0.7745907102
   2       0.4010000000      0.3199796706
 G 1 
   1       0.6514300000     -1.0000000000
  end;

 # Auxiliary/J basis set for element : C 
 NewAuxJGTO C 
 S 7 
   1    1861.0916331000      0.0134602335
   2     642.9939764000      0.0299160374
   3     235.1105725000      0.1008649584
   4      90.7028894000      0.2370970548
   5      36.7794552000      0.3924037254
   6      15.6046273000      0.3195862154
   7       6.8907294000      0.0530104441
 S 1 
   1       3.1478850000     -1.0000000000
 S 1 
   1       1.4777287000      1.0000000000
 S 1 
   1       0.7076466000      1.0000000000
 S 1 
   1       0.3430122000      1.0000000000
 S 1 
   1       0.1669453000      1.0000000000
 P 2 
   1      13.5472892000     -0.6769313712
   2       5.4669419000     -0.3779500978
 P 1 
   1       2.1751721000      1.0000000000
 P 1 
   1       0.8582194000      1.0000000000
 P 1 
   1       0.3376720000      1.0000000000
 D 2 
   1       5.9287253000     -0.3533329857
   2       1.9809209000     -0.7456525731
 D 1 
   1       0.8055417000     -1.0000000000
 D 1 
   1       0.3531244000     -1.0000000000
 F 2 
   1       1.6755626000      0.6311076882
   2       0.5997536000      0.4968166032
 G 1 
   1       1.0024600000     -1.0000000000
  end;

 # Auxiliary/J basis set for element : O 
 NewAuxJGTO O 
 S 7 
   1    2876.8216605000      0.0168151159
   2    1004.7443032000      0.0340137548
   3     369.7579954000      0.1194951309
   4     142.9442404000      0.2664627624
   5      57.8366425000      0.4202764046
   6      24.3864983000      0.2765077335
   7      10.6622662000      0.0057008815
 S 1 
   1       4.8070437000     -1.0000000000
 S 1 
   1       2.2210770000      1.0000000000
 S 1 
   1       1.0447795000      1.0000000000
 S 1 
   1       0.4968425000      1.0000000000
 S 1 
   1       0.2371384000      1.0000000000
 P 2 
   1      64.2613382000     -0.2731534179
   2      16.3006076000     -0.8168011598
 P 1 
   1       4.3550542000      1.0000000000
 P 1 
   1       1.2019554000      1.0000000000
 P 1 
   1       0.3354196000      1.0000000000
 D 2 
   1       9.2146611000     -0.4661230638
   2       2.8435251000     -0.6600908911
 D 1 
   1       0.9955759000     -1.0000000000
 D 1 
   1       0.3649441000     -1.0000000000
 F 2 
   1       2.6420115000      0.5931563945
   2       0.7345613000      0.5931563945
 G 1 
   1       1.3931000000     -1.0000000000
  end;



           ************************************************************
           *        Program running with 4 parallel MPI-processes     *
           *              working on a shared directory               *
           ************************************************************
------------------------------------------------------------------------------
                           ORCA GTO INTEGRAL CALCULATION
                           -- RI-GTO INTEGRALS CHOSEN --
------------------------------------------------------------------------------
------------------------------------------------------------------------------
                   ___                                                        
                  /   \      - P O W E R E D   B Y -                         
                 /     \                                                     
                 |  |  |   _    _      __       _____    __    __             
                 |  |  |  | |  | |    /  \     |  _  \  |  |  /  |          
                  \  \/   | |  | |   /    \    | | | |  |  | /  /          
                 / \  \   | |__| |  /  /\  \   | |_| |  |  |/  /          
                |  |  |   |  __  | /  /__\  \  |    /   |      \           
                |  |  |   | |  | | |   __   |  |    \   |  |\   \          
                \     /   | |  | | |  |  |  |  | |\  \  |  | \   \       
                 \___/    |_|  |_| |__|  |__|  |_| \__\ |__|  \__/        
                                                                              
                      - O R C A' S   B I G   F R I E N D -                    
                                      &                                       
                       - I N T E G R A L  F E E D E R -                       
                                                                              
 v1 FN, 2020, v2 2021                                                         
------------------------------------------------------------------------------


Reading SHARK input file Ar-B-diOH.SHARKINP.tmp ... ok
----------------------
SHARK INTEGRAL PACKAGE
----------------------

Number of atoms                             ...     16
Number of basis functions                   ...    179
Number of shells                            ...     81
Maximum angular momentum                    ...      2
Integral batch strategy                     ... SHARK/LIBINT Hybrid
RI-J (if used) integral strategy            ... SPLIT-RIJ (Revised 2003 algorithm where possible)
Printlevel                                  ...      1
Contraction scheme used                     ... SEGMENTED contraction
Coulomb Range Separation                    ... NOT USED
Exchange Range Separation                   ... NOT USED
Finite Nucleus Model                        ... NOT USED
Auxiliary Coulomb fitting basis             ... AVAILABLE
   # of basis functions in Aux-J            ...    518
   # of shells in Aux-J                     ...    170
   Maximum angular momentum in Aux-J        ...      4
Auxiliary J/K fitting basis                 ... NOT available
Auxiliary Correlation fitting basis         ... NOT available
Auxiliary 'external' fitting basis          ... NOT available
Integral threshold                          ...     2.500000e-11
Primitive cut-off                           ...     2.500000e-12
Primitive pair pre-selection threshold      ...     2.500000e-12

Calculating pre-screening integrals         ... done (  0.0 sec) Dimension = 81
Organizing shell pair data                  ... done (  0.0 sec)
Shell pair information
Total number of shell pairs                 ...      3321
Shell pairs after pre-screening             ...      3168
Total number of primitive shell pairs       ...     11313
Primitive shell pairs kept                  ...      8179
          la=0 lb=0:    892 shell pairs
          la=1 lb=0:   1107 shell pairs
          la=1 lb=1:    366 shell pairs
          la=2 lb=0:    452 shell pairs
          la=2 lb=1:    288 shell pairs
          la=2 lb=2:     63 shell pairs

Calculating one electron integrals          ... done (  0.0 sec)
Calculating RI/J V-Matrix + Cholesky decomp.... done (  0.4 sec)
Calculating Nuclear repulsion               ... done (  0.0 sec) ENN=    424.741795079636 Eh

SHARK setup successfully completed in   0.7 seconds

Maximum memory used throughout the entire GTOINT-calculation: 11.9 MB


           ************************************************************
           *        Program running with 4 parallel MPI-processes     *
           *              working on a shared directory               *
           ************************************************************
-------------------------------------------------------------------------------
                                 ORCA SCF
-------------------------------------------------------------------------------

------------
SCF SETTINGS
------------
Hamiltonian:
 Density Functional     Method          .... DFT(GTOs)
 Exchange Functional    Exchange        .... PBE
   PBE kappa parameter   XKappa         ....  0.804000
   PBE mue parameter    XMuePBE         ....  0.219520
 Correlation Functional Correlation     .... PBE
   PBE beta parameter  CBetaPBE         ....  0.066725
 LDA part of GGA corr.  LDAOpt          .... PW91-LDA
 Gradients option       PostSCFGGA      .... off
 Hybrid DFT is turned on
   Fraction HF Exchange ScalHFX         ....  0.250000
   Scaling of DF-GGA-X  ScalDFX         ....  0.750000
   Scaling of DF-GGA-C  ScalDFC         ....  1.000000
   Scaling of DF-LDA-C  ScalLDAC        ....  1.000000
   Perturbative correction              ....  0.000000
   Density functional embedding theory  .... OFF
   NL short-range parameter             ....  6.900000
 RI-approximation to the Coulomb term is turned on
   Number of AuxJ basis functions       .... 518
   RIJ-COSX (HFX calculated with COS-X)).... on


General Settings:
 Integral files         IntName         .... Ar-B-diOH
 Hartree-Fock type      HFTyp           .... RHF
 Total Charge           Charge          ....    0
 Multiplicity           Mult            ....    1
 Number of Electrons    NEL             ....   64
 Basis Dimension        Dim             ....  179
 Nuclear Repulsion      ENuc            ....    424.7417950796 Eh

Convergence Acceleration:
 DIIS                   CNVDIIS         .... on
   Start iteration      DIISMaxIt       ....    12
   Startup error        DIISStart       ....  0.200000
   # of expansion vecs  DIISMaxEq       ....     5
   Bias factor          DIISBfac        ....   1.050
   Max. coefficient     DIISMaxC        ....  10.000
 Trust-Rad. Augm. Hess. CNVTRAH         .... auto
   Auto Start mean grad. ratio tolernc. ....  1.125000
   Auto Start start iteration           ....    20
   Auto Start num. interpolation iter.  ....    10
   Max. Number of Micro iterations      ....    16
   Max. Number of Macro iterations      .... Maxiter - #DIIS iter
   Number of Davidson start vectors     ....     2
   Converg. threshold I  (grad. norm)   ....   1.000e-05
   Converg. threshold II (energy diff.) ....   1.000e-08
   Grad. Scal. Fac. for Micro threshold ....   0.100
   Minimum threshold for Micro iter.    ....   0.010
   NR start threshold (gradient norm)   ....   0.001
   Initial trust radius                 ....   0.400
   Minimum AH scaling param. (alpha)    ....   1.000
   Maximum AH scaling param. (alpha)    .... 1000.000
   Orbital update algorithm             .... Taylor
   White noise on init. David. guess    .... on
   Maximum white noise                  ....   0.010
   Quad. conv. algorithm                .... NR
 SOSCF                  CNVSOSCF        .... on
   Start iteration      SOSCFMaxIt      ....   150
   Startup grad/error   SOSCFStart      ....  0.003300
 Level Shifting         CNVShift        .... on
   Level shift para.    LevelShift      ....    0.2500
   Turn off err/grad.   ShiftErr        ....    0.0010
 Zerner damping         CNVZerner       .... off
 Static damping         CNVDamp         .... on
   Fraction old density DampFac         ....    0.7000
   Max. Damping (<1)    DampMax         ....    0.9800
   Min. Damping (>=0)   DampMin         ....    0.0000
   Turn off err/grad.   DampErr         ....    0.1000
 Fernandez-Rico         CNVRico         .... off

SCF Procedure:
 Maximum # iterations   MaxIter         ....   125
 SCF integral mode      SCFMode         .... Direct
   Integral package                     .... SHARK and LIBINT hybrid scheme
 Reset frequency        DirectResetFreq ....    20
 Integral Threshold     Thresh          ....  2.500e-11 Eh
 Primitive CutOff       TCut            ....  2.500e-12 Eh

Convergence Tolerance:
 Convergence Check Mode ConvCheckMode   .... Total+1el-Energy
 Convergence forced     ConvForced      .... 0
 Energy Change          TolE            ....  1.000e-08 Eh
 1-El. energy change                    ....  1.000e-05 Eh
 Orbital Gradient       TolG            ....  1.000e-05
 Orbital Rotation angle TolX            ....  1.000e-05
 DIIS Error             TolErr          ....  5.000e-07


Diagonalization of the overlap matrix:
Smallest eigenvalue                        ... 2.204e-04
Time for diagonalization                   ...    0.004 sec
Threshold for overlap eigenvalues          ... 1.000e-08
Number of eigenvalues below threshold      ... 0
Time for construction of square roots      ...    0.068 sec
Total time needed                          ...    0.072 sec

Time for model grid setup =    0.196 sec

------------------------------
INITIAL GUESS: MODEL POTENTIAL
------------------------------
Loading Hartree-Fock densities                     ... done
Calculating cut-offs                               ... done
Initializing the effective Hamiltonian             ... done
Setting up the integral package (SHARK)            ... done
Starting the Coulomb interaction                   ... done (   0.2 sec)
Reading the grid                                   ... done
Mapping shells                                     ... done
Starting the XC term evaluation                    ... done (   0.1 sec)
  promolecular density results
     # of electrons  =     64.001169101
     EX              =    -53.115797219
     EC              =     -2.148335602
     EX+EC           =    -55.264132822
Transforming the Hamiltonian                       ... done (   0.0 sec)
Diagonalizing the Hamiltonian                      ... done (   0.0 sec)
Back transforming the eigenvectors                 ... done (   0.0 sec)
Now organizing SCF variables                       ... done
                      ------------------
                      INITIAL GUESS DONE (   0.5 sec)
                      ------------------
-------------------
DFT GRID GENERATION
-------------------

General Integration Accuracy     IntAcc      ... 4.388
Radial Grid Type                 RadialGrid  ... OptM3 with GC (2021)
Angular Grid (max. ang.)         AngularGrid ... 4 (Lebedev-302)
Angular grid pruning method      GridPruning ... 4 (adaptive)
Weight generation scheme         WeightScheme... Becke
Basis function cutoff            BFCut       ... 1.0000e-11
Integration weight cutoff        WCut        ... 1.0000e-14
Angular grids for H and He will be reduced by one unit
Partially contracted basis set               ... off
Rotationally invariant grid construction     ... off

Total number of grid points                  ...    76991
Total number of batches                      ...     1211
Average number of points per batch           ...       63
Average number of grid points per atom       ...     4812
Time for grid setup =    0.551 sec

--------------------
COSX GRID GENERATION
--------------------

GRIDX 1
-------
General Integration Accuracy     IntAcc      ... 3.816
Radial Grid Type                 RadialGrid  ... OptM3 with GC (2021)
Angular Grid (max. ang.)         AngularGrid ... 1 (Lebedev-50)
Angular grid pruning method      GridPruning ... 4 (adaptive)
Weight generation scheme         WeightScheme... Becke
Basis function cutoff            BFCut       ... 1.0000e-11
Integration weight cutoff        WCut        ... 1.0000e-14
Angular grids for H and He will be reduced by one unit
Partially contracted basis set               ... on
Rotationally invariant grid construction     ... off

Total number of grid points                  ...     9860
Total number of batches                      ...      159
Average number of points per batch           ...       62
Average number of grid points per atom       ...      616
UseSFitting                                  ... on

GRIDX 2
-------
General Integration Accuracy     IntAcc      ... 4.020
Radial Grid Type                 RadialGrid  ... OptM3 with GC (2021)
Angular Grid (max. ang.)         AngularGrid ... 2 (Lebedev-110)
Angular grid pruning method      GridPruning ... 4 (adaptive)
Weight generation scheme         WeightScheme... Becke
Basis function cutoff            BFCut       ... 1.0000e-11
Integration weight cutoff        WCut        ... 1.0000e-14
Angular grids for H and He will be reduced by one unit
Partially contracted basis set               ... on
Rotationally invariant grid construction     ... off

Total number of grid points                  ...    22057
Total number of batches                      ...      352
Average number of points per batch           ...       62
Average number of grid points per atom       ...     1379
UseSFitting                                  ... on

GRIDX 3
-------
General Integration Accuracy     IntAcc      ... 4.338
Radial Grid Type                 RadialGrid  ... OptM3 with GC (2021)
Angular Grid (max. ang.)         AngularGrid ... 3 (Lebedev-194)
Angular grid pruning method      GridPruning ... 4 (adaptive)
Weight generation scheme         WeightScheme... Becke
Basis function cutoff            BFCut       ... 1.0000e-11
Integration weight cutoff        WCut        ... 1.0000e-14
Angular grids for H and He will be reduced by one unit
Partially contracted basis set               ... on
Rotationally invariant grid construction     ... off

Total number of grid points                  ...    48272
Total number of batches                      ...      764
Average number of points per batch           ...       63
Average number of grid points per atom       ...     3017
UseSFitting                                  ... on

Time for X-Grid setup             =    1.045 sec


--------------------
CPCM SOLVATION MODEL
--------------------
CPCM parameters:
  Epsilon                                         ...       2.2706
  Refrac                                          ...       1.5011
  Rsolv                                           ...       1.3000
  Surface type                                    ... GAUSSIAN VDW
  Epsilon function type                           ...         CPCM
Solvent:                                     ... BENZENE
SMD-CDS solvent descriptors:
  Soln                                       ...    1.5011
  Soln25                                     ...    1.4972
  Sola                                       ...    0.0000
  Solb                                       ...    0.1400
  Solg                                       ...   40.6200
  Solc                                       ...    1.0000
  Solh                                       ...    0.0000
Radii:
 Radius for H  used is    2.2677 Bohr (=   1.2000 Ang.)
 Radius for C  used is    3.4960 Bohr (=   1.8500 Ang.)
 Radius for B  used is    3.6283 Bohr (=   1.9200 Ang.)
 Radius for O  used is    4.3350 Bohr (=   2.2940 Ang.)
Calculating surface                               ...        done! (  0.0s)
GEPOL surface points                              ...          800
GEPOL Volume                                      ...    1024.8966
GEPOL Surface-area                                ...     570.9811
Calculating surface distance matrix               ...        done! (  0.0s)
Performing Cholesky decomposition & store         ...        done! (  0.1s)
Overall time for CPCM initialization              ...                 0.1s
--------------
SCF ITERATIONS
--------------
ITER       Energy         Delta-E        Max-DP      RMS-DP      [F,P]     Damp
               ***  Starting incremental Fock matrix formation  ***
  0   -406.9242120914   0.000000000000 0.13049059  0.00384654  0.3112759 0.7000
  1   -407.0952498084  -0.171037716951 0.09062857  0.00259608  0.1394177 0.7000
                               ***Turning on DIIS***
  2   -407.1621419107  -0.066892102342 0.17453532  0.00424464  0.0400832 0.0000
  3   -407.2675804826  -0.105438571914 0.05326560  0.00169590  0.0764120 0.0000
  4   -407.2914584800  -0.023877997361 0.01558704  0.00045496  0.0119295 0.0000
  5   -407.2926751352  -0.001216655198 0.01091347  0.00016933  0.0035386 0.0000
                      *** Initiating the SOSCF procedure ***
                           *** Shutting down DIIS ***
                      *** Re-Reading the Fockian *** 
                      *** Removing any level shift *** 
ITER      Energy       Delta-E        Grad      Rot      Max-DP    RMS-DP
  6   -407.29274099  -0.0000658553  0.000317  0.000317  0.003683  0.000095
               *** Restarting incremental Fock matrix formation ***
  7   -407.29272600   0.0000149910  0.000317  0.001360  0.002012  0.000049
  8   -407.29272294   0.0000030602  0.000560  0.000896  0.000956  0.000022
  9   -407.29272800  -0.0000050571  0.000018  0.000063  0.000085  0.000003
 10   -407.29272799   0.0000000081  0.000026  0.000041  0.000048  0.000001
                  ***Gradient check signals convergence***
              ***Rediagonalizing the Fockian in SOSCF/NRSCF***

               *****************************************************
               *                     SUCCESS                       *
               *           SCF CONVERGED AFTER  11 CYCLES          *
               *****************************************************

Old exchange energy                            =    -13.588121388 Eh
New exchange energy                            =    -13.588094465 Eh
Exchange energy change after final integration =      0.000026923 Eh
Total energy after final integration           =   -407.292701089 Eh
Final COS-X integration done in                =     2.201 sec

SMD CDS free energy correction energy :                -3.54991     Kcal/mol
Total Energy after SMD CDS correction =              -407.298358226 Eh

----------------
TOTAL SCF ENERGY
----------------

Total Energy       :         -407.29835823 Eh          -11083.15178 eV

Components:
Nuclear Repulsion  :          424.74179508 Eh           11557.81183 eV
Electronic Energy  :         -832.04015331 Eh          -22640.96362 eV
One Electron Energy:        -1395.33911590 Eh          -37969.10766 eV
Two Electron Energy:          563.29896259 Eh           15328.14404 eV
Max COSX asymmetry :            0.00000448 Eh               0.00012 eV
CPCM Dielectric    :           -0.00726087 Eh              -0.19758 eV
SMD CDS (Gcds)     :           -0.00565714 Eh              -0.15394 eV

Virial components:
Potential Energy   :         -813.36478890 Eh          -22132.78111 eV
Kinetic Energy     :          406.06643068 Eh           11049.62933 eV
Virial Ratio       :            2.00303381


DFT components:
N(Alpha)           :       32.000053474285 electrons
N(Beta)            :       32.000053474285 electrons
N(Total)           :       64.000106948570 electrons
E(X)               :      -40.636040140336 Eh       
E(C)               :       -2.165375597008 Eh       
E(XC)              :      -42.801415737344 Eh       
DFET-embed. en.    :        0.000000000000 Eh       
CPCM Solvation Model Properties:
Surface-charge          :           -0.02554077
Charge-correction       :            0.00011135 Eh               0.00303 eV
Free-energy (cav+disp)  :           -0.00565714 Eh              -0.15394 eV

---------------
SCF CONVERGENCE
---------------

  Last Energy change         ...   -2.3677e-08  Tolerance :   1.0000e-08
  Last MAX-Density change    ...    3.9968e-15  Tolerance :   1.0000e-07
  Last RMS-Density change    ...    4.7512e-17  Tolerance :   5.0000e-09
  Last Orbital Gradient      ...    1.1394e-06  Tolerance :   1.0000e-05
  Last Orbital Rotation      ...    2.8559e-06  Tolerance :   1.0000e-05

             **** THE GBW FILE WAS UPDATED (Ar-B-diOH.gbw) ****
             **** DENSITY Ar-B-diOH.scfp WAS UPDATED ****
             **** ENERGY FILE WAS UPDATED (Ar-B-diOH.en.tmp) ****
             **** THE GBW FILE WAS UPDATED (Ar-B-diOH.gbw) ****
             **** DENSITY Ar-B-diOH.scfp WAS UPDATED ****
----------------
ORBITAL ENERGIES
----------------

  NO   OCC          E(Eh)            E(eV) 
   0   2.0000     -19.206317      -522.6305 
   1   2.0000     -19.197335      -522.3861 
   2   2.0000     -10.233925      -278.4793 
   3   2.0000     -10.233003      -278.4542 
   4   2.0000     -10.232457      -278.4393 
   5   2.0000     -10.232075      -278.4289 
   6   2.0000     -10.228343      -278.3274 
   7   2.0000     -10.199573      -277.5445 
   8   2.0000      -6.744758      -183.5342 
   9   2.0000      -1.125329       -30.6218 
  10   2.0000      -1.061529       -28.8857 
  11   2.0000      -0.874741       -23.8029 
  12   2.0000      -0.767086       -20.8735 
  13   2.0000      -0.761795       -20.7295 
  14   2.0000      -0.655984       -17.8502 
  15   2.0000      -0.627274       -17.0690 
  16   2.0000      -0.620553       -16.8861 
  17   2.0000      -0.550632       -14.9835 
  18   2.0000      -0.512434       -13.9440 
  19   2.0000      -0.486123       -13.2281 
  20   2.0000      -0.481129       -13.0922 
  21   2.0000      -0.460744       -12.5375 
  22   2.0000      -0.449023       -12.2185 
  23   2.0000      -0.433158       -11.7868 
  24   2.0000      -0.411248       -11.1906 
  25   2.0000      -0.388217       -10.5639 
  26   2.0000      -0.374080       -10.1792 
  27   2.0000      -0.352265        -9.5856 
  28   2.0000      -0.333331        -9.0704 
  29   2.0000      -0.306698        -8.3457 
  30   2.0000      -0.268472        -7.3055 
  31   2.0000      -0.251516        -6.8441 
  32   0.0000      -0.018844        -0.5128 
  33   0.0000      -0.006493        -0.1767 
  34   0.0000       0.029021         0.7897 
  35   0.0000       0.056552         1.5389 
  36   0.0000       0.074064         2.0154 
  37   0.0000       0.090799         2.4708 
  38   0.0000       0.099834         2.7166 
  39   0.0000       0.115274         3.1368 
  40   0.0000       0.123563         3.3623 
  41   0.0000       0.129936         3.5357 
  42   0.0000       0.153765         4.1842 
  43   0.0000       0.162598         4.4245 
  44   0.0000       0.170069         4.6278 
  45   0.0000       0.184106         5.0098 
  46   0.0000       0.194344         5.2884 
  47   0.0000       0.208915         5.6849 
  48   0.0000       0.233045         6.3415 
  49   0.0000       0.252389         6.8679 
  50   0.0000       0.266788         7.2597 
  51   0.0000       0.284929         7.7533 
  52   0.0000       0.302794         8.2394 
  53   0.0000       0.314058         8.5459 
  54   0.0000       0.321955         8.7608 
  55   0.0000       0.329256         8.9595 
  56   0.0000       0.358457         9.7541 
  57   0.0000       0.394993        10.7483 
  58   0.0000       0.395517        10.7626 
  59   0.0000       0.426948        11.6179 
  60   0.0000       0.430363        11.7108 
  61   0.0000       0.448368        12.2007 
  62   0.0000       0.468941        12.7605 
  63   0.0000       0.474079        12.9003 
  64   0.0000       0.497407        13.5351 
  65   0.0000       0.499582        13.5943 
  66   0.0000       0.505215        13.7476 
  67   0.0000       0.508820        13.8457 
  68   0.0000       0.527515        14.3544 
  69   0.0000       0.537417        14.6239 
  70   0.0000       0.568687        15.4748 
  71   0.0000       0.586660        15.9638 
  72   0.0000       0.593196        16.1417 
  73   0.0000       0.596962        16.2442 
  74   0.0000       0.602103        16.3841 
  75   0.0000       0.621367        16.9083 
  76   0.0000       0.640907        17.4400 
  77   0.0000       0.654247        17.8030 
  78   0.0000       0.670883        18.2557 
  79   0.0000       0.672937        18.3116 
  80   0.0000       0.682989        18.5851 
  81   0.0000       0.696769        18.9600 
  82   0.0000       0.715608        19.4727 
  83   0.0000       0.730819        19.8866 
  84   0.0000       0.735389        20.0109 
  85   0.0000       0.745352        20.2820 
  86   0.0000       0.773028        21.0352 
  87   0.0000       0.778849        21.1936 
  88   0.0000       0.784965        21.3600 
  89   0.0000       0.802567        21.8390 
  90   0.0000       0.819744        22.3064 
  91   0.0000       0.854481        23.2516 
  92   0.0000       0.875533        23.8245 
  93   0.0000       0.892512        24.2865 
  94   0.0000       0.905144        24.6302 
  95   0.0000       0.939367        25.5615 
  96   0.0000       0.971666        26.4404 
  97   0.0000       0.992394        27.0044 
  98   0.0000       1.029353        28.0101 
  99   0.0000       1.075314        29.2608 
 100   0.0000       1.107009        30.1232 
 101   0.0000       1.150524        31.3074 
 102   0.0000       1.200772        32.6747 
 103   0.0000       1.231126        33.5006 
 104   0.0000       1.256086        34.1798 
 105   0.0000       1.283278        34.9198 
 106   0.0000       1.286735        35.0138 
 107   0.0000       1.291505        35.1436 
 108   0.0000       1.314329        35.7647 
 109   0.0000       1.326633        36.0995 
 110   0.0000       1.382460        37.6187 
 111   0.0000       1.393040        37.9066 
 112   0.0000       1.431191        38.9447 
 113   0.0000       1.462396        39.7938 
 114   0.0000       1.495373        40.6912 
 115   0.0000       1.504589        40.9419 
 116   0.0000       1.533027        41.7158 
 117   0.0000       1.569119        42.6979 
 118   0.0000       1.649992        44.8986 
 119   0.0000       1.686280        45.8860 
 120   0.0000       1.693746        46.0892 
 121   0.0000       1.707187        46.4549 
 122   0.0000       1.723282        46.8929 
 123   0.0000       1.761598        47.9355 
 124   0.0000       1.772748        48.2389 
 125   0.0000       1.782464        48.5033 
 126   0.0000       1.796273        48.8791 
 127   0.0000       1.810990        49.2795 
 128   0.0000       1.828217        49.7483 
 129   0.0000       1.834281        49.9133 
 130   0.0000       1.856627        50.5214 
 131   0.0000       1.873561        50.9822 
 132   0.0000       1.921054        52.2745 
 133   0.0000       1.942283        52.8522 
 134   0.0000       1.954102        53.1738 
 135   0.0000       1.978543        53.8389 
 136   0.0000       1.987511        54.0829 
 137   0.0000       2.016423        54.8697 
 138   0.0000       2.024635        55.0931 
 139   0.0000       2.028468        55.1974 
 140   0.0000       2.088766        56.8382 
 141   0.0000       2.118598        57.6500 
 142   0.0000       2.135621        58.1132 
 143   0.0000       2.175751        59.2052 
 144   0.0000       2.198457        59.8231 
 145   0.0000       2.219275        60.3895 
 146   0.0000       2.266967        61.6873 
 147   0.0000       2.327051        63.3223 
 148   0.0000       2.341429        63.7135 
 149   0.0000       2.354365        64.0655 
 150   0.0000       2.376133        64.6579 
 151   0.0000       2.391245        65.0691 
 152   0.0000       2.422940        65.9315 
 153   0.0000       2.450551        66.6829 
 154   0.0000       2.471412        67.2505 
 155   0.0000       2.582772        70.2808 
 156   0.0000       2.599957        70.7484 
 157   0.0000       2.658962        72.3540 
 158   0.0000       2.677633        72.8621 
 159   0.0000       2.701612        73.5146 
 160   0.0000       2.774116        75.4875 
 161   0.0000       2.783961        75.7554 
 162   0.0000       2.885561        78.5201 
 163   0.0000       2.918000        79.4028 
 164   0.0000       2.937795        79.9415 
 165   0.0000       2.953402        80.3661 
 166   0.0000       2.970760        80.8385 
 167   0.0000       3.122001        84.9540 
 168   0.0000       3.137276        85.3696 
 169   0.0000       3.181742        86.5796 
 170   0.0000       3.249881        88.4338 
 171   0.0000       3.300509        89.8114 
 172   0.0000       3.481118        94.7260 
 173   0.0000       3.569541        97.1322 
 174   0.0000       3.607461        98.1640 
 175   0.0000       3.699500       100.6685 
 176   0.0000       3.719985       101.2259 
 177   0.0000       3.951203       107.5177 
 178   0.0000       4.086626       111.2028 

                    ********************************
                    * MULLIKEN POPULATION ANALYSIS *
                    ********************************

-----------------------
MULLIKEN ATOMIC CHARGES
-----------------------
   0 H :    0.021387
   1 C :   -0.020625
   2 C :   -0.022393
   3 H :    0.026042
   4 C :   -0.011404
   5 H :    0.020263
   6 C :   -0.112414
   7 H :    0.050990
   8 C :    0.128516
   9 C :   -0.070888
  10 H :    0.017078
  11 B :    0.155761
  12 O :   -0.240360
  13 O :   -0.196488
  14 H :    0.118987
  15 H :    0.135549
Sum of atomic charges:    0.0000000

--------------------------------
MULLIKEN REDUCED ORBITAL CHARGES
--------------------------------
  0 H s       :     0.954616  s :     0.954616
      pz      :     0.012695  p :     0.023997
      px      :     0.006575
      py      :     0.004727
  1 C s       :     3.164650  s :     3.164650
      pz      :     0.891423  p :     2.819807
      px      :     0.950651
      py      :     0.977733
      dz2     :     0.008761  d :     0.036168
      dxz     :     0.012790
      dyz     :     0.003659
      dx2y2   :     0.004967
      dxy     :     0.005992
  2 C s       :     3.169993  s :     3.169993
      pz      :     0.958748  p :     2.816896
      px      :     0.861861
      py      :     0.996287
      dz2     :     0.011102  d :     0.035504
      dxz     :     0.010732
      dyz     :     0.006527
      dx2y2   :     0.004563
      dxy     :     0.002580
  3 H s       :     0.949837  s :     0.949837
      pz      :     0.003366  p :     0.024121
      px      :     0.015915
      py      :     0.004841
  4 C s       :     3.164752  s :     3.164752
      pz      :     0.881226  p :     2.810605
      px      :     0.955232
      py      :     0.974147
      dz2     :     0.008748  d :     0.036046
      dxz     :     0.012642
      dyz     :     0.003551
      dx2y2   :     0.005006
      dxy     :     0.006100
  5 H s       :     0.955745  s :     0.955745
      pz      :     0.012801  p :     0.023992
      px      :     0.006488
      py      :     0.004702
  6 C s       :     3.231292  s :     3.231292
      pz      :     0.921451  p :     2.843514
      px      :     0.922034
      py      :     1.000029
      dz2     :     0.009215  d :     0.037608
      dxz     :     0.013903
      dyz     :     0.003295
      dx2y2   :     0.005572
      dxy     :     0.005623
  7 H s       :     0.923368  s :     0.923368
      pz      :     0.012527  p :     0.025643
      px      :     0.007701
      py      :     0.005415
  8 C s       :     3.025594  s :     3.025594
      pz      :     0.872763  p :     2.806111
      px      :     0.986295
      py      :     0.947053
      dz2     :     0.011427  d :     0.039779
      dxz     :     0.011737
      dyz     :     0.007116
      dx2y2   :     0.005012
      dxy     :     0.004486
  9 C s       :     3.206028  s :     3.206028
      pz      :     0.889257  p :     2.827840
      px      :     0.939490
      py      :     0.999093
      dz2     :     0.009326  d :     0.037020
      dxz     :     0.013398
      dyz     :     0.003162
      dx2y2   :     0.005471
      dxy     :     0.005663
 10 H s       :     0.958717  s :     0.958717
      pz      :     0.012879  p :     0.024205
      px      :     0.006077
      py      :     0.005250
 11 B s       :     2.415260  s :     2.415260
      pz      :     0.747814  p :     2.137661
      px      :     0.800842
      py      :     0.589004
      dz2     :     0.078803  d :     0.291318
      dxz     :     0.067081
      dyz     :     0.064775
      dx2y2   :     0.043567
      dxy     :     0.037092
 12 O s       :     3.737371  s :     3.737371
      pz      :     1.329324  p :     4.469259
      px      :     1.693337
      py      :     1.446599
      dz2     :     0.008890  d :     0.033730
      dxz     :     0.012202
      dyz     :    -0.006139
      dx2y2   :     0.009338
      dxy     :     0.009439
 13 O s       :     3.738775  s :     3.738775
      pz      :     1.218676  p :     4.441993
      px      :     1.675263
      py      :     1.548055
      dz2     :    -0.011180  d :     0.015720
      dxz     :     0.005012
      dyz     :     0.007653
      dx2y2   :     0.006141
      dxy     :     0.008094
 14 H s       :     0.809608  s :     0.809608
      pz      :     0.036641  p :     0.071405
      px      :     0.017893
      py      :     0.016870
 15 H s       :     0.792354  s :     0.792354
      pz      :     0.023263  p :     0.072097
      px      :     0.019358
      py      :     0.029476


                     *******************************
                     * LOEWDIN POPULATION ANALYSIS *
                     *******************************

----------------------
LOEWDIN ATOMIC CHARGES
----------------------
   0 H :    0.033507
   1 C :   -0.028129
   2 C :   -0.041019
   3 H :    0.035828
   4 C :   -0.024735
   5 H :    0.034813
   6 C :    0.060188
   7 H :    0.091775
   8 C :    0.209520
   9 C :    0.010879
  10 H :    0.047113
  11 B :   -0.162363
  12 O :   -0.356696
  13 O :   -0.261377
  14 H :    0.177084
  15 H :    0.173611

-------------------------------
LOEWDIN REDUCED ORBITAL CHARGES
-------------------------------
  0 H s       :     0.896219  s :     0.896219
      pz      :     0.035678  p :     0.070274
      px      :     0.020031
      py      :     0.014565
  1 C s       :     2.856613  s :     2.856613
      pz      :     1.051908  p :     3.077389
      px      :     1.065454
      py      :     0.960026
      dz2     :     0.024596  d :     0.094128
      dxz     :     0.036061
      dyz     :     0.006961
      dx2y2   :     0.013951
      dxy     :     0.012558
  2 C s       :     2.857107  s :     2.857107
      pz      :     1.068985  p :     3.091589
      px      :     1.045046
      py      :     0.977558
      dz2     :     0.031456  d :     0.092323
      dxz     :     0.031232
      dyz     :     0.013934
      dx2y2   :     0.011378
      dxy     :     0.004323
  3 H s       :     0.893493  s :     0.893493
      pz      :     0.011794  p :     0.070679
      px      :     0.043866
      py      :     0.015018
  4 C s       :     2.855886  s :     2.855886
      pz      :     1.050626  p :     3.074998
      px      :     1.067382
      py      :     0.956990
      dz2     :     0.024467  d :     0.093852
      dxz     :     0.035852
      dyz     :     0.006721
      dx2y2   :     0.013925
      dxy     :     0.012886
  5 H s       :     0.894967  s :     0.894967
      pz      :     0.035969  p :     0.070220
      px      :     0.019745
      py      :     0.014507
  6 C s       :     2.818670  s :     2.818670
      pz      :     1.027136  p :     3.025556
      px      :     1.028583
      py      :     0.969837
      dz2     :     0.025943  d :     0.095586
      dxz     :     0.036709
      dyz     :     0.006332
      dx2y2   :     0.015321
      dxy     :     0.011281
  7 H s       :     0.833392  s :     0.833392
      pz      :     0.033659  p :     0.074832
      px      :     0.025860
      py      :     0.015313
  8 C s       :     2.738082  s :     2.738082
      pz      :     1.021936  p :     2.943696
      px      :     1.061543
      py      :     0.860217
      dz2     :     0.030128  d :     0.108703
      dxz     :     0.040881
      dyz     :     0.014646
      dx2y2   :     0.011131
      dxy     :     0.011917
  9 C s       :     2.834794  s :     2.834794
      pz      :     1.041430  p :     3.059652
      px      :     1.043360
      py      :     0.974862
      dz2     :     0.025769  d :     0.094674
      dxz     :     0.036142
      dyz     :     0.006158
      dx2y2   :     0.015075
      dxy     :     0.011530
 10 H s       :     0.882736  s :     0.882736
      pz      :     0.035124  p :     0.070151
      px      :     0.019544
      py      :     0.015483
 11 B s       :     2.402392  s :     2.402392
      pz      :     0.720344  p :     2.035131
      px      :     0.729599
      py      :     0.585189
      dz2     :     0.200050  d :     0.724840
      dxz     :     0.170233
      dyz     :     0.147820
      dx2y2   :     0.116796
      dxy     :     0.089941
 12 O s       :     3.299031  s :     3.299031
      pz      :     1.523998  p :     4.622388
      px      :     1.648428
      py      :     1.449962
      dz2     :     0.089948  d :     0.435277
      dxz     :     0.127688
      dyz     :     0.107533
      dx2y2   :     0.070490
      dxy     :     0.039618
 13 O s       :     3.297348  s :     3.297348
      pz      :     1.326481  p :     4.588586
      px      :     1.634192
      py      :     1.627913
      dz2     :     0.133469  d :     0.375443
      dxz     :     0.058176
      dyz     :     0.065838
      dx2y2   :     0.051912
      dxy     :     0.066048
 14 H s       :     0.639544  s :     0.639544
      pz      :     0.088551  p :     0.183372
      px      :     0.050750
      py      :     0.044070
 15 H s       :     0.641283  s :     0.641283
      pz      :     0.050575  p :     0.185106
      px      :     0.053841
      py      :     0.080690


                      *****************************
                      * MAYER POPULATION ANALYSIS *
                      *****************************

  NA   - Mulliken gross atomic population
  ZA   - Total nuclear charge
  QA   - Mulliken gross atomic charge
  VA   - Mayer's total valence
  BVA  - Mayer's bonded valence
  FA   - Mayer's free valence

  ATOM       NA         ZA         QA         VA         BVA        FA
  0 H      0.9786     1.0000     0.0214     0.9810     0.9810     0.0000
  1 C      6.0206     6.0000    -0.0206     3.8367     3.8367    -0.0000
  2 C      6.0224     6.0000    -0.0224     3.8190     3.8190     0.0000
  3 H      0.9740     1.0000     0.0260     0.9816     0.9816    -0.0000
  4 C      6.0114     6.0000    -0.0114     3.7930     3.7930     0.0000
  5 H      0.9797     1.0000     0.0203     0.9815     0.9815     0.0000
  6 C      6.1124     6.0000    -0.1124     3.9070     3.9070     0.0000
  7 H      0.9490     1.0000     0.0510     0.9710     0.9710    -0.0000
  8 C      5.8715     6.0000     0.1285     3.7655     3.7655    -0.0000
  9 C      6.0709     6.0000    -0.0709     3.8227     3.8227    -0.0000
 10 H      0.9829     1.0000     0.0171     0.9770     0.9770    -0.0000
 11 B      4.8442     5.0000     0.1558     3.3421     3.3421    -0.0000
 12 O      8.2404     8.0000    -0.2404     2.4932     2.4932     0.0000
 13 O      8.1965     8.0000    -0.1965     2.5612     2.5612     0.0000
 14 H      0.8810     1.0000     0.1190     1.0008     1.0008    -0.0000
 15 H      0.8645     1.0000     0.1355     0.9834     0.9834    -0.0000

  Mayer bond orders larger than 0.100000
B(  0-H ,  1-C ) :   0.9877 B(  1-C ,  2-C ) :   1.3802 B(  1-C ,  9-C ) :   1.3869 
B(  2-C ,  3-H ) :   0.9941 B(  2-C ,  4-C ) :   1.3794 B(  4-C ,  5-H ) :   0.9874 
B(  4-C ,  6-C ) :   1.3579 B(  6-C ,  7-H ) :   0.9814 B(  6-C ,  8-C ) :   1.3837 
B(  8-C ,  9-C ) :   1.3280 B(  8-C , 11-B ) :   0.8695 B(  8-C , 13-O ) :   0.1108 
B(  9-C , 10-H ) :   0.9851 B( 11-B , 12-O ) :   1.1896 B( 11-B , 13-O ) :   1.2343 
B( 12-O , 13-O ) :   0.1850 B( 12-O , 15-H ) :   0.9534 B( 13-O , 14-H ) :   0.9635 


-------
TIMINGS
-------

Total SCF time: 0 days 0 hours 0 min 29 sec 

Total time                  ....      29.401 sec
Sum of individual times     ....      27.614 sec  ( 93.9%)

Fock matrix formation       ....      24.230 sec  ( 82.4%)
  Split-RI-J                ....       1.354 sec  (  5.6% of F)
  Chain of spheres X        ....      10.751 sec  ( 44.4% of F)
  XC integration            ....       5.632 sec  ( 23.2% of F)
    Basis function eval.    ....       0.602 sec  ( 10.7% of XC)
    Density eval.           ....       0.737 sec  ( 13.1% of XC)
    XC-Functional eval.     ....       0.396 sec  (  7.0% of XC)
    XC-Potential eval.      ....       0.583 sec  ( 10.3% of XC)
Diagonalization             ....       0.343 sec  (  1.2%)
Density matrix formation    ....       0.014 sec  (  0.0%)
Population analysis         ....       0.198 sec  (  0.7%)
Initial guess               ....       0.287 sec  (  1.0%)
Orbital Transformation      ....       0.000 sec  (  0.0%)
Orbital Orthonormalization  ....       0.000 sec  (  0.0%)
DIIS solution               ....       0.630 sec  (  2.1%)
SOSCF solution              ....       0.120 sec  (  0.4%)
Grid generation             ....       1.792 sec  (  6.1%)

Maximum memory used throughout the entire SCF-calculation: 55.7 MB


-------------------------------------------------------------------------------
                          DFT DISPERSION CORRECTION                            
                                                                               
                              DFTD3 V3.1  Rev 1                                
                          USING Becke-Johnson damping                          
-------------------------------------------------------------------------------
The PBE0 functional is recognized
Active option DFTDOPT                   ...         4   

molecular C6(AA) [au] = 2907.494175 


            DFT-D V3
 parameters
 s6 scaling factor         :     1.0000 
 a1 scaling factor         :     0.4145 
 s8 scaling factor         :     1.2177 
 a2 scaling factor         :     4.8593 
 ad hoc parameters k1-k3   :    16.0000     1.3333    -4.0000 

 Edisp/kcal,au: -9.154628194674  -0.014588827096 
 E6   /kcal   :  -5.678240477 
 E8   /kcal   :  -3.476387718 
 % E8         :  37.974100571 

-------------------------   ----------------
Dispersion correction           -0.014588827
-------------------------   ----------------


-------------------------   --------------------
FINAL SINGLE POINT ENERGY      -407.312947053389
-------------------------   --------------------



           ************************************************************
           *        Program running with 4 parallel MPI-processes     *
           *              working on a shared directory               *
           ************************************************************
------------------------------------------------------------------------------
                         ORCA SCF GRADIENT CALCULATION
------------------------------------------------------------------------------

 ... reading COSX grid (gridx3)
Gradient of the Kohn-Sham DFT energy:
Kohn-Sham wavefunction type      ... RKS
Hartree-Fock exchange scaling    ...    0.250
Number of operators              ...    1
Number of atoms                  ...   16
Basis set dimensions             ...  179
Integral neglect threshold       ... 2.5e-11
Integral primitive cutoff        ... 2.5e-12
SHARK Integral package           ... ON

Nuc. rep. gradient       (SHARK) ... done (  0.1 sec)
HCore & Overlap gradient (SHARK) ... done (  0.0 sec)
RI-J gradient            (SHARK) ... done (  0.3 sec)
COSX-gradient                    ... done (  2.8 sec)
Exchange-correlation gradient    ... done
Dispersion correction            ... done

------------------
CARTESIAN GRADIENT
------------------

   1   H   :   -0.005711651   -0.000912589   -0.006745914
   2   C   :    0.000211631    0.002337366   -0.008569208
   3   C   :    0.003587123   -0.000209568    0.002449008
   4   H   :   -0.008214060   -0.000245920    0.000135656
   5   C   :   -0.004662939    0.002869147    0.003718363
   6   H   :   -0.005354082    0.000908734    0.006848708
   7   C   :   -0.022889251   -0.002545371   -0.009345640
   8   H   :   -0.006075793    0.001990577    0.008264523
   9   C   :   -0.187902473   -0.073644567   -0.037288661
  10   C   :   -0.018542744    0.001595965    0.008192963
  11   H   :    0.002325134   -0.002401010   -0.008036066
  12   B   :   -0.067623825   -0.118093190   -0.050202307
  13   O   :    0.163262126   -0.047387849    0.313597205
  14   O   :    0.161240264    0.220054521   -0.227617086
  15   H   :   -0.003148263    0.019138970   -0.017760213
  16   H   :   -0.000444313   -0.003332905    0.022499172

Difference to translation invariance:
           :    0.0000568822    0.0001223117    0.0001405025

Difference to rotation invariance:
           :   -0.0007346249    0.0001722931   -0.0001006746

Norm of the cartesian gradient     ...    0.5651776158
RMS gradient                       ...    0.0815763622
MAX gradient                       ...    0.3135972049

-------
TIMINGS
-------

Total SCF gradient time            ...        5.023 sec

One electron gradient       ....       0.048 sec  (  1.0%)
RI-J Coulomb gradient       ....       0.334 sec  (  6.7%)
COSX gradient               ....       2.759 sec  ( 54.9%)
XC gradient                 ....       1.106 sec  ( 22.0%)
CPCM gradient               ....       0.126 sec  (  2.5%)
   A-Matrix (El+Nuc)        ....       0.027 sec  (  0.5%)
   Potential                ....       0.099 sec  (  2.0%)

Maximum memory used throughout the entire SCFGRAD-calculation: 43.0 MB
------------------------------------------------------------------------------
                         ORCA GEOMETRY RELAXATION STEP
------------------------------------------------------------------------------

Reading the OPT-File                    .... done
Getting information on internals        .... done
Copying old internal coords+grads       .... done
Making the new internal coordinates     .... (new redundants).... done
Validating the new internal coordinates .... (new redundants).... done
Calculating the B-matrix                .... done
Calculating the G,G- and P matrices     .... done
Transforming gradient to internals      .... done
Projecting the internal gradient        .... done
Number of atoms                         ....  16
Number of internal coordinates          ....  81
Current Energy                          ....  -407.312947053 Eh
Current gradient norm                   ....     0.565177616 Eh/bohr
Maximum allowed component of the step   ....  0.300
Current trust radius                    ....  0.300
Evaluating the initial hessian          ....  (Almloef) done
Projecting the Hessian                  .... done
Forming the augmented Hessian           .... done
Diagonalizing the augmented Hessian     .... done
Last element of RFO vector              ....  0.887169686
Lowest eigenvalues of augmented Hessian:
 -0.231284860  0.026898003  0.027182789  0.027399964  0.027448084
Length of the computed step             ....  0.520129732
Warning: the length of the step is outside the trust region - taking restricted step instead
The input lambda is                     ....    -0.231285
   iter:   1  x=   -0.464463  g=    0.774236 f(x)=     0.180535
   iter:   2  x=   -0.693041  g=    0.300127 f(x)=     0.068602
   iter:   3  x=   -0.807077  g=    0.160805 f(x)=     0.018337
   iter:   4  x=   -0.824737  g=    0.124464 f(x)=     0.002198
   iter:   5  x=   -0.825075  g=    0.119906 f(x)=     0.000041
   iter:   6  x=   -0.825076  g=    0.119821 f(x)=     0.000000
   iter:   7  x=   -0.825076  g=    0.119821 f(x)=     0.000000
   iter:   8  x=   -0.825076  g=    0.119821 f(x)=     0.000000
The output lambda is                    ....    -0.825076 (8 iterations)
The final length of the internal step   ....  0.300000000
Converting the step to cartesian space:
 Initial RMS(Int)=    0.0333333333
Transforming coordinates:
 Iter   0:  RMS(Cart)=    0.0893405667 RMS(Int)=    1.7095068722
 Iter   1:  RMS(Cart)=    0.0020775366 RMS(Int)=    0.0014623237
[...]
  98   0.0000       0.976867        26.5819 
  99   0.0000       1.055943        28.7337 
 100   0.0000       1.077374        29.3168 
 101   0.0000       1.130576        30.7645 
 102   0.0000       1.136049        30.9135 
 103   0.0000       1.187501        32.3136 
 104   0.0000       1.204293        32.7705 
 105   0.0000       1.245730        33.8980 
 106   0.0000       1.253774        34.1169 
 107   0.0000       1.271373        34.5958 
 108   0.0000       1.280676        34.8490 
 109   0.0000       1.295420        35.2502 
 110   0.0000       1.304410        35.4948 
 111   0.0000       1.324837        36.0506 
 112   0.0000       1.365793        37.1651 
 113   0.0000       1.410781        38.3893 
 114   0.0000       1.418763        38.6065 
 115   0.0000       1.423364        38.7317 
 116   0.0000       1.485731        40.4288 
 117   0.0000       1.523442        41.4550 
 118   0.0000       1.584960        43.1289 
 119   0.0000       1.610899        43.8348 
 120   0.0000       1.616563        43.9889 
 121   0.0000       1.679339        45.6971 
 122   0.0000       1.684238        45.8304 
 123   0.0000       1.716547        46.7096 
 124   0.0000       1.728871        47.0450 
 125   0.0000       1.746082        47.5133 
 126   0.0000       1.758978        47.8642 
 127   0.0000       1.762889        47.9707 
 128   0.0000       1.763383        47.9841 
 129   0.0000       1.773883        48.2698 
 130   0.0000       1.813788        49.3557 
 131   0.0000       1.821024        49.5526 
 132   0.0000       1.867337        50.8128 
 133   0.0000       1.868632        50.8481 
 134   0.0000       1.903708        51.8025 
 135   0.0000       1.921532        52.2875 
 136   0.0000       1.945503        52.9398 
 137   0.0000       1.970943        53.6321 
 138   0.0000       1.987049        54.0703 
 139   0.0000       1.997844        54.3641 
 140   0.0000       2.009097        54.6703 
 141   0.0000       2.046911        55.6993 
 142   0.0000       2.073186        56.4142 
 143   0.0000       2.098640        57.1069 
 144   0.0000       2.122097        57.7452 
 145   0.0000       2.164536        58.9000 
 146   0.0000       2.181007        59.3482 
 147   0.0000       2.271709        61.8164 
 148   0.0000       2.303529        62.6822 
 149   0.0000       2.307597        62.7929 
 150   0.0000       2.310975        62.8848 
 151   0.0000       2.347597        63.8814 
 152   0.0000       2.347956        63.8911 
 153   0.0000       2.366272        64.3895 
 154   0.0000       2.383457        64.8572 
 155   0.0000       2.451105        66.6980 
 156   0.0000       2.546678        69.2986 
 157   0.0000       2.621657        71.3389 
 158   0.0000       2.622228        71.3545 
 159   0.0000       2.651460        72.1499 
 160   0.0000       2.741322        74.5952 
 161   0.0000       2.749340        74.8134 
 162   0.0000       2.825137        76.8759 
 163   0.0000       2.879642        78.3591 
 164   0.0000       2.880853        78.3920 
 165   0.0000       2.890973        78.6674 
 166   0.0000       2.960884        80.5697 
 167   0.0000       3.015318        82.0510 
 168   0.0000       3.033226        82.5383 
 169   0.0000       3.056399        83.1689 
 170   0.0000       3.077016        83.7299 
 171   0.0000       3.135499        85.3213 
 172   0.0000       3.230051        87.8942 
 173   0.0000       3.295461        89.6740 
 174   0.0000       3.413643        92.8900 
 175   0.0000       3.457505        94.0835 
 176   0.0000       3.627122        98.6990 
 177   0.0000       3.877657       105.5164 
 178   0.0000       3.899590       106.1133 

                    ********************************
                    * MULLIKEN POPULATION ANALYSIS *
                    ********************************

-----------------------
MULLIKEN ATOMIC CHARGES
-----------------------
   0 H :    0.037227
   1 C :   -0.020736
   2 C :   -0.026844
   3 H :    0.041864
   4 C :   -0.020832
   5 H :    0.037292
   6 C :   -0.081877
   7 H :    0.040950
   8 C :   -0.032935
   9 C :   -0.082130
  10 H :    0.041064
  11 B :    0.618191
  12 O :   -0.434640
  13 O :   -0.434326
  14 H :    0.158789
  15 H :    0.158945
Sum of atomic charges:   -0.0000000

--------------------------------
MULLIKEN REDUCED ORBITAL CHARGES
--------------------------------
  0 H s       :     0.939203  s :     0.939203
      pz      :     0.012988  p :     0.023570
      px      :     0.006005
      py      :     0.004578
  1 C s       :     3.171061  s :     3.171061
      pz      :     0.888863  p :     2.814893
      px      :     0.943399
      py      :     0.982631
      dz2     :     0.008687  d :     0.034781
      dxz     :     0.012150
      dyz     :     0.003432
      dx2y2   :     0.005022
      dxy     :     0.005490
  2 C s       :     3.175144  s :     3.175144
      pz      :     0.959700  p :     2.816631
      px      :     0.890838
      py      :     0.966093
      dz2     :     0.010949  d :     0.035069
      dxz     :     0.010567
      dyz     :     0.006599
      dx2y2   :     0.004385
      dxy     :     0.002568
  3 H s       :     0.934606  s :     0.934606
      pz      :     0.003214  p :     0.023529
      px      :     0.015829
      py      :     0.004486
  4 C s       :     3.171145  s :     3.171145
      pz      :     0.893002  p :     2.814901
      px      :     0.939615
      py      :     0.982284
      dz2     :     0.008594  d :     0.034786
      dxz     :     0.012394
      dyz     :     0.003606
      dx2y2   :     0.004902
      dxy     :     0.005291
  5 H s       :     0.939139  s :     0.939139
      pz      :     0.012365  p :     0.023569
      px      :     0.006685
      py      :     0.004519
  6 C s       :     3.209212  s :     3.209212
      pz      :     0.915825  p :     2.836903
      px      :     0.950218
      py      :     0.970860
      dz2     :     0.009324  d :     0.035762
      dxz     :     0.012145
      dyz     :     0.003145
      dx2y2   :     0.005301
      dxy     :     0.005846
  7 H s       :     0.935558  s :     0.935558
      pz      :     0.013033  p :     0.023492
      px      :     0.005711
      py      :     0.004748
  8 C s       :     3.135145  s :     3.135145
      pz      :     0.913110  p :     2.864361
      px      :     0.960853
      py      :     0.990398
      dz2     :     0.009558  d :     0.033429
      dxz     :     0.011215
      dyz     :     0.006381
      dx2y2   :     0.003618
      dxy     :     0.002657
  9 C s       :     3.209096  s :     3.209096
      pz      :     0.920042  p :     2.837262
      px      :     0.944735
      py      :     0.972485
      dz2     :     0.009058  d :     0.035772
      dxz     :     0.012636
      dyz     :     0.003317
      dx2y2   :     0.005153
      dxy     :     0.005607
 10 H s       :     0.935444  s :     0.935444
      pz      :     0.012464  p :     0.023492
      px      :     0.006330
      py      :     0.004698
 11 B s       :     2.526183  s :     2.526183
      pz      :     0.566234  p :     1.659257
      px      :     0.714644
      py      :     0.378380
      dz2     :     0.056057  d :     0.196369
      dxz     :     0.057979
      dyz     :     0.035908
      dx2y2   :     0.022843
      dxy     :     0.023582
 12 O s       :     3.794072  s :     3.794072
      pz      :     1.310186  p :     4.633520
      px      :     1.614769
      py      :     1.708564
      dz2     :    -0.004061  d :     0.007049
      dxz     :     0.001814
      dyz     :    -0.001680
      dx2y2   :     0.004897
      dxy     :     0.006080
 13 O s       :     3.793820  s :     3.793820
      pz      :     1.304527  p :     4.633394
      px      :     1.611215
      py      :     1.717652
      dz2     :    -0.005721  d :     0.007112
      dxz     :     0.001668
      dyz     :    -0.000255
      dx2y2   :     0.005231
      dxy     :     0.006189
 14 H s       :     0.771855  s :     0.771855
      pz      :     0.029308  p :     0.069357
      px      :     0.021861
      py      :     0.018187
 15 H s       :     0.771714  s :     0.771714
      pz      :     0.028356  p :     0.069341
      px      :     0.021785
      py      :     0.019200


                     *******************************
                     * LOEWDIN POPULATION ANALYSIS *
                     *******************************

----------------------
LOEWDIN ATOMIC CHARGES
----------------------
   0 H :    0.041083
   1 C :   -0.033548
   2 C :   -0.023475
   3 H :    0.041758
   4 C :   -0.033538
   5 H :    0.041099
   6 C :    0.001645
   7 H :    0.050776
   8 C :    0.033587
   9 C :    0.001804
  10 H :    0.050900
  11 B :    0.247716
  12 O :   -0.380863
  13 O :   -0.381280
  14 H :    0.171118
  15 H :    0.171217

-------------------------------
LOEWDIN REDUCED ORBITAL CHARGES
-------------------------------
  0 H s       :     0.890200  s :     0.890200
      pz      :     0.036420  p :     0.068717
      px      :     0.018287
      py      :     0.014010
  1 C s       :     2.863496  s :     2.863496
      pz      :     1.051439  p :     3.079644
      px      :     1.063051
      py      :     0.965153
      dz2     :     0.024289  d :     0.090409
      dxz     :     0.034394
      dyz     :     0.006324
      dx2y2   :     0.013998
      dxy     :     0.011403
  2 C s       :     2.865807  s :     2.865807
      pz      :     1.070622  p :     3.067257
      px      :     1.046845
      py      :     0.949790
      dz2     :     0.030957  d :     0.090411
      dxz     :     0.030531
      dyz     :     0.013881
      dx2y2   :     0.010796
      dxy     :     0.004246
  3 H s       :     0.889664  s :     0.889664
      pz      :     0.011122  p :     0.068578
      px      :     0.043792
      py      :     0.013664
  4 C s       :     2.863485  s :     2.863485
      pz      :     1.052554  p :     3.079636
      px      :     1.062259
      py      :     0.964824
      dz2     :     0.024174  d :     0.090417
      dxz     :     0.034948
      dyz     :     0.006748
      dx2y2   :     0.013627
      dxy     :     0.010919
  5 H s       :     0.890186  s :     0.890186
      pz      :     0.034807  p :     0.068715
      px      :     0.020060
      py      :     0.013849
  6 C s       :     2.853827  s :     2.853827
      pz      :     1.046346  p :     3.052727
      px      :     1.052386
      py      :     0.953996
      dz2     :     0.025281  d :     0.091800
      dxz     :     0.034245
      dyz     :     0.005978
      dx2y2   :     0.014421
      dxy     :     0.011875
  7 H s       :     0.880633  s :     0.880633
      pz      :     0.036555  p :     0.068591
      px      :     0.017952
      py      :     0.014084
  8 C s       :     2.833823  s :     2.833823
      pz      :     1.051754  p :     3.046279
      px      :     1.055316
      py      :     0.939209
      dz2     :     0.027481  d :     0.086311
      dxz     :     0.032691
      dyz     :     0.013324
      dx2y2   :     0.007998
      dxy     :     0.004819
  9 C s       :     2.853735  s :     2.853735
      pz      :     1.047567  p :     3.052639
      px      :     1.050690
      py      :     0.954382
      dz2     :     0.024779  d :     0.091822
      dxz     :     0.035341
      dyz     :     0.006382
      dx2y2   :     0.013978
      dxy     :     0.011342
 10 H s       :     0.880508  s :     0.880508
      pz      :     0.034970  p :     0.068592
      px      :     0.019681
      py      :     0.013942
 11 B s       :     2.454804  s :     2.454804
      pz      :     0.644149  p :     1.827233
      px      :     0.766886
      py      :     0.416198
      dz2     :     0.127737  d :     0.470248
      dxz     :     0.142986
      dyz     :     0.082891
      dx2y2   :     0.063934
      dxy     :     0.052700
 12 O s       :     3.412995  s :     3.412995
      pz      :     1.420482  p :     4.739611
      px      :     1.664153
      py      :     1.654976
      dz2     :     0.059827  d :     0.228256
      dxz     :     0.078123
      dyz     :     0.041168
      dx2y2   :     0.030256
      dxy     :     0.018882
 13 O s       :     3.413033  s :     3.413033
      pz      :     1.412514  p :     4.739703
      px      :     1.662389
      py      :     1.664800
      dz2     :     0.061638  d :     0.228544
      dxz     :     0.074655
      dyz     :     0.040048
      dx2y2   :     0.030392
      dxy     :     0.021811
 14 H s       :     0.642387  s :     0.642387
      pz      :     0.072828  p :     0.186496
      px      :     0.063415
      py      :     0.050252
 15 H s       :     0.642292  s :     0.642292
      pz      :     0.070021  p :     0.186491
      px      :     0.063205
      py      :     0.053265


                      *****************************
                      * MAYER POPULATION ANALYSIS *
                      *****************************

  NA   - Mulliken gross atomic population
  ZA   - Total nuclear charge
  QA   - Mulliken gross atomic charge
  VA   - Mayer's total valence
  BVA  - Mayer's bonded valence
  FA   - Mayer's free valence

  ATOM       NA         ZA         QA         VA         BVA        FA
  0 H      0.9628     1.0000     0.0372     0.9812     0.9812    -0.0000
  1 C      6.0207     6.0000    -0.0207     3.8369     3.8369    -0.0000
  2 C      6.0268     6.0000    -0.0268     3.8402     3.8402     0.0000
  3 H      0.9581     1.0000     0.0419     0.9807     0.9807     0.0000
  4 C      6.0208     6.0000    -0.0208     3.8368     3.8368    -0.0000
  5 H      0.9627     1.0000     0.0373     0.9812     0.9812    -0.0000
  6 C      6.0819     6.0000    -0.0819     3.8763     3.8763    -0.0000
  7 H      0.9591     1.0000     0.0409     0.9774     0.9774     0.0000
  8 C      6.0329     6.0000    -0.0329     3.7319     3.7319     0.0000
  9 C      6.0821     6.0000    -0.0821     3.8764     3.8764    -0.0000
 10 H      0.9589     1.0000     0.0411     0.9774     0.9774    -0.0000
 11 B      4.3818     5.0000     0.6182     3.1481     3.1481    -0.0000
 12 O      8.4346     8.0000    -0.4346     2.2616     2.2616    -0.0000
 13 O      8.4343     8.0000    -0.4343     2.2624     2.2624    -0.0000
 14 H      0.8412     1.0000     0.1588     0.9887     0.9887     0.0000
 15 H      0.8411     1.0000     0.1589     0.9885     0.9885    -0.0000

  Mayer bond orders larger than 0.100000
B(  0-H ,  1-C ) :   0.9879 B(  1-C ,  2-C ) :   1.3834 B(  1-C ,  9-C ) :   1.3958 
B(  2-C ,  3-H ) :   0.9869 B(  2-C ,  4-C ) :   1.3834 B(  4-C ,  5-H ) :   0.9879 
B(  4-C ,  6-C ) :   1.3957 B(  6-C ,  7-H ) :   0.9812 B(  6-C ,  8-C ) :   1.3486 
B(  8-C ,  9-C ) :   1.3485 B(  8-C , 11-B ) :   0.8560 B(  9-C , 10-H ) :   0.9811 
B( 11-B , 12-O ) :   1.1076 B( 11-B , 13-O ) :   1.1082 B( 12-O , 15-H ) :   0.9804 
B( 13-O , 14-H ) :   0.9803 

-------
TIMINGS
-------

Total SCF time: 0 days 0 hours 0 min 16 sec 

Total time                  ....      16.607 sec
Sum of individual times     ....      15.267 sec  ( 91.9%)

Fock matrix formation       ....      13.009 sec  ( 78.3%)
  Split-RI-J                ....       0.622 sec  (  4.8% of F)
  Chain of spheres X        ....       7.148 sec  ( 54.9% of F)
  XC integration            ....       2.317 sec  ( 17.8% of F)
    Basis function eval.    ....       0.289 sec  ( 12.5% of XC)
    Density eval.           ....       0.312 sec  ( 13.5% of XC)
    XC-Functional eval.     ....       0.111 sec  (  4.8% of XC)
    XC-Potential eval.      ....       0.180 sec  (  7.8% of XC)
Diagonalization             ....       0.076 sec  (  0.5%)
Density matrix formation    ....       0.009 sec  (  0.1%)
Population analysis         ....       0.173 sec  (  1.0%)
Initial guess               ....       0.008 sec  (  0.1%)
Orbital Transformation      ....       0.000 sec  (  0.0%)
Orbital Orthonormalization  ....       0.004 sec  (  0.0%)
DIIS solution               ....       0.003 sec  (  0.0%)
SOSCF solution              ....       0.162 sec  (  1.0%)
Grid generation             ....       1.827 sec  ( 11.0%)

Maximum memory used throughout the entire SCF-calculation: 55.7 MB


-------------------------------------------------------------------------------
                          DFT DISPERSION CORRECTION                            
                                                                               
                              DFTD3 V3.1  Rev 1                                
                          USING Becke-Johnson damping                          
-------------------------------------------------------------------------------
The PBE0 functional is recognized
Active option DFTDOPT                   ...         4   

molecular C6(AA) [au] = 2951.303827 


            DFT-D V3
 parameters
 s6 scaling factor         :     1.0000 
 a1 scaling factor         :     0.4145 
 s8 scaling factor         :     1.2177 
 a2 scaling factor         :     4.8593 
 ad hoc parameters k1-k3   :    16.0000     1.3333    -4.0000 

 Edisp/kcal,au: -8.714258155461  -0.013887052843 
 E6   /kcal   :  -5.398677237 
 E8   /kcal   :  -3.315580918 
 % E8         :  38.047770207 

-------------------------   ----------------
Dispersion correction           -0.013887053
-------------------------   ----------------


-------------------------   --------------------
FINAL SINGLE POINT ENERGY      -407.545701408527
-------------------------   --------------------

                                *** OPTIMIZATION RUN DONE ***

                            ***************************************
                            *     ORCA property calculations      *
                            ***************************************

                                    ---------------------
                                    Active property flags
                                    ---------------------
   (+) Dipole Moment


------------------------------------------------------------------------------
                       ORCA ELECTRIC PROPERTIES CALCULATION
------------------------------------------------------------------------------

Dipole Moment Calculation                       ... on
Quadrupole Moment Calculation                   ... off
Polarizability Calculation                      ... off
GBWName                                         ... Ar-B-diOH.gbw
Electron density                                ... Ar-B-diOH.scfp
The origin for moment calculation is the CENTER OF MASS  = ( 0.313029, -0.124163  1.860925)

-------------
DIPOLE MOMENT
-------------
                                X             Y             Z
Electronic contribution:     -4.55157      -0.30373      -0.13075
Nuclear contribution   :      5.97242       0.39856       0.16848
                        -----------------------------------------
Total Dipole Moment    :      1.42084       0.09483       0.03773
                        -----------------------------------------
Magnitude (a.u.)       :      1.42450
Magnitude (Debye)      :      3.62080



--------------------
Rotational spectrum 
--------------------
 
Rotational constants in cm-1:     0.121946     0.037196     0.028970 
Rotational constants in MHz :  3655.848252  1115.115711   868.488998 

 Dipole components along the rotational axes: 
x,y,z [a.u.] :     1.424502     0.002343     0.000044 
x,y,z [Debye]:     3.620797     0.005955     0.000112 

 

Timings for individual modules:

Sum of individual times         ...      826.543 sec (=  13.776 min)
GTO integral calculation        ...       84.407 sec (=   1.407 min)  10.2 %
SCF iterations                  ...      590.354 sec (=   9.839 min)  71.4 %
SCF Gradient evaluation         ...      150.799 sec (=   2.513 min)  18.2 %
Geometry relaxation             ...        0.983 sec (=   0.016 min)   0.1 %
                             ****ORCA TERMINATED NORMALLY****
TOTAL RUN TIME: 0 days 0 hours 15 minutes 35 seconds 636 msec
