
                                 *****************
                                 * O   R   C   A *
                                 *****************

                                            #,                                       
                                            ###                                      
                                            ####                                     
                                            #####                                    
                                            ######                                   
                                           ########,                                 
                                     ,,################,,,,,                         
                               ,,#################################,,                 
                          ,,##########################################,,             
                       ,#########################################, ''#####,          
                    ,#############################################,,   '####,        
                  ,##################################################,,,,####,       
                ,###########''''           ''''###############################       
              ,#####''   ,,,,##########,,,,          '''####'''          '####       
            ,##' ,,,,###########################,,,                        '##       
           ' ,,###''''                  '''############,,,                           
         ,,##''                                '''############,,,,        ,,,,,,###''
      ,#''                                            '''#######################'''  
     '                                                          ''''####''''         
             ,#######,   #######,   ,#######,      ##                                
            ,#'     '#,  ##    ##  ,#'     '#,    #''#        ######   ,####,        
            ##       ##  ##   ,#'  ##            #'  '#       #        #'  '#        
            ##       ##  #######   ##           ,######,      #####,   #    #        
            '#,     ,#'  ##    ##  '#,     ,#' ,#      #,         ##   #,  ,#        
             '#######'   ##     ##  '#######'  #'      '#     #####' # '####'        



                  #######################################################
                  #                        -***-                        #
                  #          Department of theory and spectroscopy      #
                  #    Directorship and core code : Frank Neese         #
                  #        Max Planck Institute fuer Kohlenforschung    #
                  #                Kaiser Wilhelm Platz 1               #
                  #                 D-45470 Muelheim/Ruhr               #
                  #                      Germany                        #
                  #                                                     #
                  #                  All rights reserved                #
                  #                        -***-                        #
                  #######################################################


                         Program Version 5.0.4 -  RELEASE  -


 With contributions from (in alphabetic order):
   Daniel Aravena         : Magnetic Suceptibility
   Michael Atanasov       : Ab Initio Ligand Field Theory (pilot matlab implementation)
   Alexander A. Auer      : GIAO ZORA, VPT2 properties, NMR spectrum
   Ute Becker             : Parallelization
   Giovanni Bistoni       : ED, misc. LED, open-shell LED, HFLD
   Martin Brehm           : Molecular dynamics
   Dmytro Bykov           : SCF Hessian
   Vijay G. Chilkuri      : MRCI spin determinant printing, contributions to CSF-ICE
   Dipayan Datta          : RHF DLPNO-CCSD density
   Achintya Kumar Dutta   : EOM-CC, STEOM-CC
   Dmitry Ganyushin       : Spin-Orbit,Spin-Spin,Magnetic field MRCI
   Miquel Garcia          : C-PCM and meta-GGA Hessian, CC/C-PCM, Gaussian charge scheme
   Yang Guo               : DLPNO-NEVPT2, F12-NEVPT2, CIM, IAO-localization
   Andreas Hansen         : Spin unrestricted coupled pair/coupled cluster methods
   Benjamin Helmich-Paris : MC-RPA, TRAH-SCF, COSX integrals
   Lee Huntington         : MR-EOM, pCC
   Robert Izsak           : Overlap fitted RIJCOSX, COSX-SCS-MP3, EOM
   Marcus Kettner         : VPT2
   Christian Kollmar      : KDIIS, OOCD, Brueckner-CCSD(T), CCSD density, CASPT2, CASPT2-K
   Simone Kossmann        : Meta GGA functionals, TD-DFT gradient, OOMP2, MP2 Hessian
   Martin Krupicka        : Initial AUTO-CI
   Lucas Lang             : DCDCAS
   Marvin Lechner         : AUTO-CI (C++ implementation), FIC-MRCC
   Dagmar Lenk            : GEPOL surface, SMD
   Dimitrios Liakos       : Extrapolation schemes; Compound Job, initial MDCI parallelization
   Dimitrios Manganas     : Further ROCIS development; embedding schemes
   Dimitrios Pantazis     : SARC Basis sets
   Anastasios Papadopoulos: AUTO-CI, single reference methods and gradients
   Taras Petrenko         : DFT Hessian,TD-DFT gradient, ASA, ECA, R-Raman, ABS, FL, XAS/XES, NRVS
   Peter Pinski           : DLPNO-MP2, DLPNO-MP2 Gradient
   Christoph Reimann      : Effective Core Potentials
   Marius Retegan         : Local ZFS, SOC
   Christoph Riplinger    : Optimizer, TS searches, QM/MM, DLPNO-CCSD(T), (RO)-DLPNO pert. Triples
   Tobias Risthaus        : Range-separated hybrids, TD-DFT gradient, RPA, STAB
   Michael Roemelt        : Original ROCIS implementation
   Masaaki Saitow         : Open-shell DLPNO-CCSD energy and density
   Barbara Sandhoefer     : DKH picture change effects
   Avijit Sen             : IP-ROCIS
   Kantharuban Sivalingam : CASSCF convergence, NEVPT2, FIC-MRCI
   Bernardo de Souza      : ESD, SOC TD-DFT
   Georgi Stoychev        : AutoAux, RI-MP2 NMR, DLPNO-MP2 response
   Willem Van den Heuvel  : Paramagnetic NMR
   Boris Wezisla          : Elementary symmetry handling
   Frank Wennmohs         : Technical directorship


 We gratefully acknowledge several colleagues who have allowed us to
 interface, adapt or use parts of their codes:
   Stefan Grimme, W. Hujo, H. Kruse, P. Pracht,  : VdW corrections, initial TS optimization,
                  C. Bannwarth, S. Ehlert          DFT functionals, gCP, sTDA/sTD-DF
   Ed Valeev, F. Pavosevic, A. Kumar             : LibInt (2-el integral package), F12 methods
   Garnet Chan, S. Sharma, J. Yang, R. Olivares  : DMRG
   Ulf Ekstrom                                   : XCFun DFT Library
   Mihaly Kallay                                 : mrcc  (arbitrary order and MRCC methods)
   Jiri Pittner, Ondrej Demel                    : Mk-CCSD
   Frank Weinhold                                : gennbo (NPA and NBO analysis)
   Christopher J. Cramer and Donald G. Truhlar   : smd solvation model
   Lars Goerigk                                  : TD-DFT with DH, B97 family of functionals
   V. Asgeirsson, H. Jonsson                     : NEB implementation
   FAccTs GmbH                                   : IRC, NEB, NEB-TS, DLPNO-Multilevel, CI-OPT
                                                   MM, QMMM, 2- and 3-layer-ONIOM, Crystal-QMMM,
                                                   LR-CPCM, SF, NACMEs, symmetry and pop. for TD-DFT,
                                                   nearIR, NL-DFT gradient (VV10), updates on ESD,
                                                   ML-optimized integration grids
   S Lehtola, MJT Oliveira, MAL Marques          : LibXC Library
   Liviu Ungur et al                             : ANISO software


 Your calculation uses the libint2 library for the computation of 2-el integrals
 For citations please refer to: http://libint.valeyev.net

 Your ORCA version has been built with support for libXC version: 5.1.0
 For citations please refer to: https://tddft.org/programs/libxc/

 This ORCA versions uses:
   CBLAS   interface :  Fast vector & matrix operations
   LAPACKE interface :  Fast linear algebra routines
   SCALAPACK package :  Parallel linear algebra routines
   Shared memory     :  Shared parallel matrices
   BLAS/LAPACK       :  OpenBLAS 0.3.15  USE64BITINT DYNAMIC_ARCH NO_AFFINITY Zen SINGLE_THREADED
        Core in use  :  Zen
   Copyright (c) 2011-2014, The OpenBLAS Project


Your calculation utilizes the atom-pairwise dispersion correction
with the Becke-Johnson damping scheme (D3BJ)
Cite in your paper:
S.Grimme, S.Ehrlich, L.Goerigk, J Comput Chem, (2011), 32, 1456–1465 
S.Grimme, J.Antony, S.Ehrlich and H.Krieg, J.Chem.Phys., 132, (2010), 154104 
   

Your calculation utilizes the SMD solvation module
Please cite in your paper:
A.V. Marenich, C.J. Cramer, D.G. Truhlar J. Phys. Chem. B, 113, (2009), 6378 

================================================================================

----- Orbital basis set information -----
Your calculation utilizes the basis: def2-TZVPP
   F. Weigend and R. Ahlrichs, Phys. Chem. Chem. Phys. 7, 3297 (2005).

----- AuxJ basis set information -----
Your calculation utilizes the auxiliary basis: def2/J
   F. Weigend, Phys. Chem. Chem. Phys. 8, 1057 (2006).

================================================================================
                                        WARNINGS
                       Please study these warnings very carefully!
================================================================================


INFO   : the flag for use of the SHARK integral package has been found!

================================================================================
                                       INPUT FILE
================================================================================
NAME = Ar-B-diOH-sp.inp
|  1> ! PBE0 def2-TZVPP D3BJ CPCM printbasis
|  2> 
|  3> %cpcm
|  4>   smd true
|  5>   SMDsolvent "BENZENE"
|  6> end
|  7> 
|  8> %pal
|  9>   nprocs 4
| 10> end
| 11> 
| 12> %maxcore 1500
| 13> 
| 14> * xyz 0 1
| 15> H      2.61425    0.18143    3.20847
| 16> C      2.10208    0.10732    2.24590
| 17> C      2.83723    0.11204    1.06061
| 18> H      3.92740    0.18442    1.09192
| 19> C      2.17690    0.02426   -0.16470
| 20> H      2.74833    0.02310   -1.09626
| 21> C      0.78670   -0.06380   -0.19941
| 22> H      0.29357   -0.14138   -1.17421
| 23> C      0.02339   -0.07507    0.97987
| 24> C      0.71279    0.01018    2.20077
| 25> H      0.15862    0.01821    3.14539
| 26> B     -1.54906   -0.17995    0.93604
| 27> O     -2.28150    0.16567   -0.16149
| 28> O     -2.28705   -0.62341    1.99393
| 29> H     -1.76116   -0.91553    2.74245
| 30> H     -1.75996    0.52773   -0.88196
| 31> *
| 32> 
| 33>                          ****END OF INPUT****
================================================================================

                       ****************************
                       * Single Point Calculation *
                       ****************************

---------------------------------
CARTESIAN COORDINATES (ANGSTROEM)
---------------------------------
  H      2.614250    0.181430    3.208470
  C      2.102080    0.107320    2.245900
  C      2.837230    0.112040    1.060610
  H      3.927400    0.184420    1.091920
  C      2.176900    0.024260   -0.164700
  H      2.748330    0.023100   -1.096260
  C      0.786700   -0.063800   -0.199410
  H      0.293570   -0.141380   -1.174210
  C      0.023390   -0.075070    0.979870
  C      0.712790    0.010180    2.200770
  H      0.158620    0.018210    3.145390
  B     -1.549060   -0.179950    0.936040
  O     -2.281500    0.165670   -0.161490
  O     -2.287050   -0.623410    1.993930
  H     -1.761160   -0.915530    2.742450
  H     -1.759960    0.527730   -0.881960

----------------------------
CARTESIAN COORDINATES (A.U.)
----------------------------
  NO LB      ZA    FRAG     MASS         X           Y           Z
   0 H     1.0000    0     1.008    4.940217    0.342853    6.063130
   1 C     6.0000    0    12.011    3.972356    0.202805    4.244136
   2 C     6.0000    0    12.011    5.361588    0.211725    2.004262
   3 H     1.0000    0     1.008    7.421710    0.348503    2.063430
   4 C     6.0000    0    12.011    4.113745    0.045845   -0.311238
   5 H     1.0000    0     1.008    5.193591    0.043653   -2.071631
   6 C     6.0000    0    12.011    1.486648   -0.120565   -0.376830
   7 H     1.0000    0     1.008    0.554767   -0.267169   -2.218935
   8 C     6.0000    0    12.011    0.044201   -0.141862    1.851686
   9 C     6.0000    0    12.011    1.346978    0.019237    4.158853
  10 H     1.0000    0     1.008    0.299748    0.034412    5.943926
  11 B     5.0000    0    10.810   -2.927299   -0.340056    1.768859
  12 O     8.0000    0    15.999   -4.311410    0.313071   -0.305172
  13 O     8.0000    0    15.999   -4.321898   -1.178074    3.767982
  14 H     1.0000    0     1.008   -3.328110   -1.730101    5.182479
  15 H     1.0000    0     1.008   -3.325842    0.997265   -1.666663

--------------------------------
INTERNAL COORDINATES (ANGSTROEM)
--------------------------------
 H      0   0   0     0.000000000000     0.00000000     0.00000000
 C      1   0   0     1.092863855153     0.00000000     0.00000000
 C      2   1   0     1.394768864364   120.08279536     0.00000000
 H      3   2   1     1.093018668368   120.10483704     0.33019149
 C      3   2   1     1.394677609127   119.79157335   180.33719692
 H      5   3   2     1.092857549775   120.09237988   180.26922101
 C      5   3   2     1.393418597443   119.88317370     0.18452651
 H      7   5   3     1.095185323724   118.41661502   180.57874091
 C      7   5   3     1.404802650695   121.44624510   359.59599399
 C      2   1   3     1.393412932551   120.03420517   180.10764143
 H     10   2   1     1.095205831887   118.42793347     0.46275254
 B      9   7   5     1.576553166182   121.27451219   180.21778563
 O     12   9   7     1.363999134494   122.75825645   338.04426792
 O     12   9   7     1.363971137451   122.66444770   158.07831248
 H     14  12   9     0.960300253514   114.02591985   356.39152787
 H     13  12   9     0.960296014831   114.05338724   356.44286514

---------------------------
INTERNAL COORDINATES (A.U.)
---------------------------
 H      0   0   0     0.000000000000     0.00000000     0.00000000
 C      1   0   0     2.065213387901     0.00000000     0.00000000
 C      2   1   0     2.635731173769   120.08279536     0.00000000
 H      3   2   1     2.065505942478   120.10483704     0.33019149
 C      3   2   1     2.635558726362   119.79157335   180.33719692
 H      5   3   2     2.065201472463   120.09237988   180.26922101
 C      5   3   2     2.633179539080   119.88317370     0.18452651
 H      7   5   3     2.069600327728   118.41661502   180.57874091
 C      7   5   3     2.654692282020   121.44624510   359.59599399
 C      2   1   3     2.633168833985   120.03420517   180.10764143
 H     10   2   1     2.069639082540   118.42793347     0.46275254
 B      9   7   5     2.979253719651   121.27451219   180.21778563
 O     12   9   7     2.577584811099   122.75825645   338.04426792
 O     12   9   7     2.577531904356   122.66444770   158.07831248
 H     14  12   9     1.814704485478   114.02591985   356.39152787
 H     13  12   9     1.814696475526   114.05338724   356.44286514

---------------------
BASIS SET INFORMATION
---------------------
There are 4 groups of distinct atoms

 Group   1 Type H   : 5s2p1d contracted to 3s2p1d pattern {311/11/1}
 Group   2 Type C   : 11s6p2d1f contracted to 5s3p2d1f pattern {62111/411/11/1}
 Group   3 Type B   : 11s6p2d1f contracted to 5s3p2d1f pattern {62111/411/11/1}
 Group   4 Type O   : 11s6p2d1f contracted to 5s3p2d1f pattern {62111/411/11/1}

Atom   0H    basis set group =>   1
Atom   1C    basis set group =>   2
Atom   2C    basis set group =>   2
Atom   3H    basis set group =>   1
Atom   4C    basis set group =>   2
Atom   5H    basis set group =>   1
Atom   6C    basis set group =>   2
Atom   7H    basis set group =>   1
Atom   8C    basis set group =>   2
Atom   9C    basis set group =>   2
Atom  10H    basis set group =>   1
Atom  11B    basis set group =>   3
Atom  12O    basis set group =>   4
Atom  13O    basis set group =>   4
Atom  14H    basis set group =>   1
Atom  15H    basis set group =>   1

-------------------------
BASIS SET IN INPUT FORMAT
-------------------------

 # Basis set for element : H 
 NewGTO H 
 S 3 
   1      34.0613410000      0.0254393072
   2       5.1235746000      0.1900859489
   3       1.1646626000      0.8524411301
 S 1 
   1       0.3272304100      1.0000000000
 S 1 
   1       0.1030724100      1.0000000000
 P 1 
   1       1.4070000000      1.0000000000
 P 1 
   1       0.3880000000      1.0000000000
 D 1 
   1       1.0570000000      1.0000000000
  end;

 # Basis set for element : B 
 NewGTO B 
 S 6 
   1    8564.8660687000      0.0006375464
   2    1284.1516263000      0.0049364466
   3     292.2787160400      0.0255181244
   4      82.7754691760      0.1014577835
   5      27.0179392690      0.3088586856
   6       9.8149619660      0.6523463970
 S 2 
   1       3.9318559059      0.6715277955
   2       1.6595599712      0.3585034506
 S 1 
   1       0.3576296524      1.0000000000
 S 1 
   1       0.1424627750      1.0000000000
 S 1 
   1       0.0605605948      1.0000000000
 P 4 
   1      22.4538758030      0.0111890363
   2       5.1045058330      0.0730161447
   3       1.4986081344      0.2927442869
   4       0.5092783132      0.7389636283
 P 1 
   1       0.1814707780      1.0000000000
 P 1 
   1       0.0646218939      1.0000000000
 D 1 
   1       0.6610000000      1.0000000000
 D 1 
   1       0.1990000000      1.0000000000
 F 1 
   1       0.4900000000      1.0000000000
  end;

 # Basis set for element : C 
 NewGTO C 
 S 6 
   1   13575.3496820000      0.0006064549
   2    2035.2333680000      0.0046979088
   3     463.2256235900      0.0243324776
   4     131.2001959800      0.0973999683
   5      42.8530158910      0.3019558425
   6      15.5841857660      0.6623360915
 S 2 
   1       6.2067138508      0.6559530854
   2       2.5764896527      0.3758563329
 S 1 
   1       0.5769633942      1.0000000000
 S 1 
   1       0.2297283136      1.0000000000
 S 1 
   1       0.0951644400      1.0000000000
 P 4 
   1      34.6972322440      0.0113272200
   2       7.9582622826      0.0761696592
   3       2.3780826883      0.3019225220
   4       0.8143320818      0.7278502735
 P 1 
   1       0.2888754725      1.0000000000
 P 1 
   1       0.1005682367      1.0000000000
 D 1 
   1       1.0970000000      1.0000000000
 D 1 
   1       0.3180000000      1.0000000000
 F 1 
   1       0.7610000000      1.0000000000
  end;

 # Basis set for element : O 
 NewGTO O 
 S 6 
   1   27032.3826310000      0.0005722733
   2    4052.3871392000      0.0044353233
   3     922.3272271000      0.0230201076
   4     261.2407098900      0.0928224906
   5      85.3546413510      0.2937850002
   6      31.0350352450      0.6740160450
 S 2 
   1      12.2608607280      0.6383993702
   2       4.9987076005      0.3953458713
 S 1 
   1       1.1703108158      1.0000000000
 S 1 
   1       0.4647474099      1.0000000000
 S 1 
   1       0.1850453636      1.0000000000
 P 4 
   1      63.2749548010      0.0120183321
   2      14.6270493790      0.0830054217
   3       4.4501223456      0.3199174393
   4       1.5275799647      0.7071554292
 P 1 
   1       0.5293511794      1.0000000000
 P 1 
   1       0.1747842127      1.0000000000
 D 1 
   1       2.3140000000      1.0000000000
 D 1 
   1       0.6450000000      1.0000000000
 F 1 
   1       1.4280000000      1.0000000000
  end;

---------------------------------
AUXILIARY/J BASIS SET INFORMATION
---------------------------------
There are 4 groups of distinct atoms

 Group   1 Type H   : 5s2p1d contracted to 3s1p1d pattern {311/2/1}
 Group   2 Type C   : 12s5p4d2f1g contracted to 6s4p3d1f1g pattern {711111/2111/211/2/1}
 Group   3 Type B   : 12s5p4d2f1g contracted to 6s4p3d1f1g pattern {711111/2111/211/2/1}
 Group   4 Type O   : 12s5p4d2f1g contracted to 6s4p3d1f1g pattern {711111/2111/211/2/1}

Atom   0H    basis set group =>   1
Atom   1C    basis set group =>   2
Atom   2C    basis set group =>   2
Atom   3H    basis set group =>   1
Atom   4C    basis set group =>   2
Atom   5H    basis set group =>   1
Atom   6C    basis set group =>   2
Atom   7H    basis set group =>   1
Atom   8C    basis set group =>   2
Atom   9C    basis set group =>   2
Atom  10H    basis set group =>   1
Atom  11B    basis set group =>   3
Atom  12O    basis set group =>   4
Atom  13O    basis set group =>   4
Atom  14H    basis set group =>   1
Atom  15H    basis set group =>   1

-------------------------------------
AUXILIARY/J BASIS SET IN INPUT FORMAT
-------------------------------------

 # Auxiliary/J basis set for element : H 
 NewAuxJGTO H 
 S 3 
   1      15.6752927000      0.1007184237
   2       3.6063578000      0.3404257499
   3       1.2080016000      0.6491996172
 S 1 
   1       0.4726794000      1.0000000000
 S 1 
   1       0.2018100000      1.0000000000
 P 2 
   1       2.0281365000      0.5596620919
   2       0.5358730000      0.5596620919
 D 1 
   1       2.2165124000      1.0000000000
  end;

 # Auxiliary/J basis set for element : B 
 NewAuxJGTO B 
 S 7 
   1    1322.2016723000      0.0130721780
   2     458.2370653000      0.0281065289
   3     168.0023641000      0.0968125842
   4      64.9577690000      0.2258335225
   5      26.3871856000      0.3821491110
   6      11.2108611000      0.3266991672
   7       4.9554460000      0.0770367109
 S 1 
   1       2.2652825000     -1.0000000000
 S 1 
   1       1.0638086000      1.0000000000
 S 1 
   1       0.5095187000      1.0000000000
 S 1 
   1       0.2469859000      1.0000000000
 S 1 
   1       0.1202089000      1.0000000000
 P 2 
   1       9.3560736000     -0.5615847160
   2       3.9743131000     -0.4920798837
 P 1 
   1       1.6645147000      1.0000000000
 P 1 
   1       0.6913035000     -1.0000000000
 P 1 
   1       0.2863135000      1.0000000000
 D 2 
   1       2.1120313000      0.3924108444
   2       0.7780769000      0.6972711530
 D 1 
   1       0.3277101000      1.0000000000
 D 1 
   1       0.1449465000      1.0000000000
 F 2 
   1       1.0582718000      0.7745907102
   2       0.4010000000      0.3199796706
 G 1 
   1       0.6514300000     -1.0000000000
  end;

 # Auxiliary/J basis set for element : C 
 NewAuxJGTO C 
 S 7 
   1    1861.0916331000      0.0134602335
   2     642.9939764000      0.0299160374
   3     235.1105725000      0.1008649584
   4      90.7028894000      0.2370970548
   5      36.7794552000      0.3924037254
   6      15.6046273000      0.3195862154
   7       6.8907294000      0.0530104441
 S 1 
   1       3.1478850000     -1.0000000000
 S 1 
   1       1.4777287000      1.0000000000
 S 1 
   1       0.7076466000      1.0000000000
 S 1 
   1       0.3430122000      1.0000000000
 S 1 
   1       0.1669453000      1.0000000000
 P 2 
   1      13.5472892000     -0.6769313712
   2       5.4669419000     -0.3779500978
 P 1 
   1       2.1751721000      1.0000000000
 P 1 
   1       0.8582194000      1.0000000000
 P 1 
   1       0.3376720000      1.0000000000
 D 2 
   1       5.9287253000     -0.3533329857
   2       1.9809209000     -0.7456525731
 D 1 
   1       0.8055417000     -1.0000000000
 D 1 
   1       0.3531244000     -1.0000000000
 F 2 
   1       1.6755626000      0.6311076882
   2       0.5997536000      0.4968166032
 G 1 
   1       1.0024600000     -1.0000000000
  end;

 # Auxiliary/J basis set for element : O 
 NewAuxJGTO O 
 S 7 
   1    2876.8216605000      0.0168151159
   2    1004.7443032000      0.0340137548
   3     369.7579954000      0.1194951309
   4     142.9442404000      0.2664627624
   5      57.8366425000      0.4202764046
   6      24.3864983000      0.2765077335
   7      10.6622662000      0.0057008815
 S 1 
   1       4.8070437000     -1.0000000000
 S 1 
   1       2.2210770000      1.0000000000
 S 1 
   1       1.0447795000      1.0000000000
 S 1 
   1       0.4968425000      1.0000000000
 S 1 
   1       0.2371384000      1.0000000000
 P 2 
   1      64.2613382000     -0.2731534179
   2      16.3006076000     -0.8168011598
 P 1 
   1       4.3550542000      1.0000000000
 P 1 
   1       1.2019554000      1.0000000000
 P 1 
   1       0.3354196000      1.0000000000
 D 2 
   1       9.2146611000     -0.4661230638
   2       2.8435251000     -0.6600908911
 D 1 
   1       0.9955759000     -1.0000000000
 D 1 
   1       0.3649441000     -1.0000000000
 F 2 
   1       2.6420115000      0.5931563945
   2       0.7345613000      0.5931563945
 G 1 
   1       1.3931000000     -1.0000000000
  end;



           ************************************************************
           *        Program running with 4 parallel MPI-processes     *
           *              working on a shared directory               *
           ************************************************************
------------------------------------------------------------------------------
                           ORCA GTO INTEGRAL CALCULATION
                           -- RI-GTO INTEGRALS CHOSEN --
------------------------------------------------------------------------------
------------------------------------------------------------------------------
                   ___                                                        
                  /   \      - P O W E R E D   B Y -                         
                 /     \                                                     
                 |  |  |   _    _      __       _____    __    __             
                 |  |  |  | |  | |    /  \     |  _  \  |  |  /  |          
                  \  \/   | |  | |   /    \    | | | |  |  | /  /          
                 / \  \   | |__| |  /  /\  \   | |_| |  |  |/  /          
                |  |  |   |  __  | /  /__\  \  |    /   |      \           
                |  |  |   | |  | | |   __   |  |    \   |  |\   \          
                \     /   | |  | | |  |  |  |  | |\  \  |  | \   \       
                 \___/    |_|  |_| |__|  |__|  |_| \__\ |__|  \__/        
                                                                              
                      - O R C A' S   B I G   F R I E N D -                    
                                      &                                       
                       - I N T E G R A L  F E E D E R -                       
                                                                              
 v1 FN, 2020, v2 2021                                                         
------------------------------------------------------------------------------


Reading SHARK input file Ar-B-diOH-sp.SHARKINP.tmp ... ok
----------------------
SHARK INTEGRAL PACKAGE
----------------------

Number of atoms                             ...     16
Number of basis functions                   ...    377
Number of shells                            ...    141
Maximum angular momentum                    ...      3
Integral batch strategy                     ... SHARK/LIBINT Hybrid
RI-J (if used) integral strategy            ... SPLIT-RIJ (Revised 2003 algorithm where possible)
Printlevel                                  ...      1
Contraction scheme used                     ... SEGMENTED contraction
Coulomb Range Separation                    ... NOT USED
Exchange Range Separation                   ... NOT USED
Finite Nucleus Model                        ... NOT USED
Auxiliary Coulomb fitting basis             ... AVAILABLE
   # of basis functions in Aux-J            ...    518
   # of shells in Aux-J                     ...    170
   Maximum angular momentum in Aux-J        ...      4
Auxiliary J/K fitting basis                 ... NOT available
Auxiliary Correlation fitting basis         ... NOT available
Auxiliary 'external' fitting basis          ... NOT available
Integral threshold                          ...     1.000000e-10
Primitive cut-off                           ...     1.000000e-11
Primitive pair pre-selection threshold      ...     1.000000e-11

Calculating pre-screening integrals         ... done (  0.0 sec) Dimension = 141
Organizing shell pair data                  ... done (  0.1 sec)
Shell pair information
Total number of shell pairs                 ...     10011
Shell pairs after pre-screening             ...      8742
Total number of primitive shell pairs       ...     28185
Primitive shell pairs kept                  ...     18631
          la=0 lb=0:   1877 shell pairs
          la=1 lb=0:   2412 shell pairs
          la=1 lb=1:    797 shell pairs
          la=2 lb=0:   1377 shell pairs
          la=2 lb=1:    902 shell pairs
          la=2 lb=2:    278 shell pairs
          la=3 lb=0:    522 shell pairs
          la=3 lb=1:    340 shell pairs
          la=3 lb=2:    198 shell pairs
          la=3 lb=3:     39 shell pairs

Calculating one electron integrals          ... done (  0.0 sec)
Calculating RI/J V-Matrix + Cholesky decomp.... done (  0.2 sec)
Calculating Nuclear repulsion               ... done (  0.0 sec) ENN=    393.314453932354 Eh

SHARK setup successfully completed in   0.9 seconds

Maximum memory used throughout the entire GTOINT-calculation: 27.1 MB


           ************************************************************
           *        Program running with 4 parallel MPI-processes     *
           *              working on a shared directory               *
           ************************************************************
-------------------------------------------------------------------------------
                                 ORCA SCF
-------------------------------------------------------------------------------

------------
SCF SETTINGS
------------
Hamiltonian:
 Density Functional     Method          .... DFT(GTOs)
 Exchange Functional    Exchange        .... PBE
   PBE kappa parameter   XKappa         ....  0.804000
   PBE mue parameter    XMuePBE         ....  0.219520
 Correlation Functional Correlation     .... PBE
   PBE beta parameter  CBetaPBE         ....  0.066725
 LDA part of GGA corr.  LDAOpt          .... PW91-LDA
 Gradients option       PostSCFGGA      .... off
 Hybrid DFT is turned on
   Fraction HF Exchange ScalHFX         ....  0.250000
   Scaling of DF-GGA-X  ScalDFX         ....  0.750000
   Scaling of DF-GGA-C  ScalDFC         ....  1.000000
   Scaling of DF-LDA-C  ScalLDAC        ....  1.000000
   Perturbative correction              ....  0.000000
   Density functional embedding theory  .... OFF
   NL short-range parameter             ....  6.900000
 RI-approximation to the Coulomb term is turned on
   Number of AuxJ basis functions       .... 518
   RIJ-COSX (HFX calculated with COS-X)).... on


General Settings:
 Integral files         IntName         .... Ar-B-diOH-sp
 Hartree-Fock type      HFTyp           .... RHF
 Total Charge           Charge          ....    0
 Multiplicity           Mult            ....    1
 Number of Electrons    NEL             ....   64
 Basis Dimension        Dim             ....  377
 Nuclear Repulsion      ENuc            ....    393.3144539324 Eh

Convergence Acceleration:
 DIIS                   CNVDIIS         .... on
   Start iteration      DIISMaxIt       ....    12
   Startup error        DIISStart       ....  0.200000
   # of expansion vecs  DIISMaxEq       ....     5
   Bias factor          DIISBfac        ....   1.050
   Max. coefficient     DIISMaxC        ....  10.000
 Trust-Rad. Augm. Hess. CNVTRAH         .... auto
   Auto Start mean grad. ratio tolernc. ....  1.125000
   Auto Start start iteration           ....    20
   Auto Start num. interpolation iter.  ....    10
   Max. Number of Micro iterations      ....    16
   Max. Number of Macro iterations      .... Maxiter - #DIIS iter
   Number of Davidson start vectors     ....     2
   Converg. threshold I  (grad. norm)   ....   5.000e-05
   Converg. threshold II (energy diff.) ....   1.000e-06
   Grad. Scal. Fac. for Micro threshold ....   0.100
   Minimum threshold for Micro iter.    ....   0.010
   NR start threshold (gradient norm)   ....   0.001
   Initial trust radius                 ....   0.400
   Minimum AH scaling param. (alpha)    ....   1.000
   Maximum AH scaling param. (alpha)    .... 1000.000
   Orbital update algorithm             .... Taylor
   White noise on init. David. guess    .... on
   Maximum white noise                  ....   0.010
   Quad. conv. algorithm                .... NR
 SOSCF                  CNVSOSCF        .... on
   Start iteration      SOSCFMaxIt      ....   150
   Startup grad/error   SOSCFStart      ....  0.003300
 Level Shifting         CNVShift        .... on
   Level shift para.    LevelShift      ....    0.2500
   Turn off err/grad.   ShiftErr        ....    0.0010
 Zerner damping         CNVZerner       .... off
 Static damping         CNVDamp         .... on
   Fraction old density DampFac         ....    0.7000
   Max. Damping (<1)    DampMax         ....    0.9800
   Min. Damping (>=0)   DampMin         ....    0.0000
   Turn off err/grad.   DampErr         ....    0.1000
 Fernandez-Rico         CNVRico         .... off

SCF Procedure:
 Maximum # iterations   MaxIter         ....   125
 SCF integral mode      SCFMode         .... Direct
   Integral package                     .... SHARK and LIBINT hybrid scheme
 Reset frequency        DirectResetFreq ....    20
 Integral Threshold     Thresh          ....  1.000e-10 Eh
 Primitive CutOff       TCut            ....  1.000e-11 Eh

Convergence Tolerance:
 Convergence Check Mode ConvCheckMode   .... Total+1el-Energy
 Convergence forced     ConvForced      .... 0
 Energy Change          TolE            ....  1.000e-06 Eh
 1-El. energy change                    ....  1.000e-03 Eh
 Orbital Gradient       TolG            ....  5.000e-05
 Orbital Rotation angle TolX            ....  5.000e-05
 DIIS Error             TolErr          ....  1.000e-06


Diagonalization of the overlap matrix:
Smallest eigenvalue                        ... 8.309e-06
Time for diagonalization                   ...    0.019 sec
Threshold for overlap eigenvalues          ... 1.000e-08
Number of eigenvalues below threshold      ... 0
Time for construction of square roots      ...    0.061 sec
Total time needed                          ...    0.082 sec

Time for model grid setup =    0.161 sec

------------------------------
INITIAL GUESS: MODEL POTENTIAL
------------------------------
Loading Hartree-Fock densities                     ... done
Calculating cut-offs                               ... done
Initializing the effective Hamiltonian             ... done
Setting up the integral package (SHARK)            ... done
Starting the Coulomb interaction                   ... done (   0.3 sec)
Reading the grid                                   ... done
Mapping shells                                     ... done
Starting the XC term evaluation                    ... done (   0.2 sec)
  promolecular density results
     # of electrons  =     63.997770616
     EX              =    -52.861487492
     EC              =     -2.106740224
     EX+EC           =    -54.968227717
Transforming the Hamiltonian                       ... done (   0.0 sec)
Diagonalizing the Hamiltonian                      ... done (   0.0 sec)
Back transforming the eigenvectors                 ... done (   0.0 sec)
Now organizing SCF variables                       ... done
                      ------------------
                      INITIAL GUESS DONE (   0.7 sec)
                      ------------------
-------------------
DFT GRID GENERATION
-------------------

General Integration Accuracy     IntAcc      ... 4.388
Radial Grid Type                 RadialGrid  ... OptM3 with GC (2021)
Angular Grid (max. ang.)         AngularGrid ... 4 (Lebedev-302)
Angular grid pruning method      GridPruning ... 4 (adaptive)
Weight generation scheme         WeightScheme... Becke
Basis function cutoff            BFCut       ... 1.0000e-10
Integration weight cutoff        WCut        ... 1.0000e-14
Angular grids for H and He will be reduced by one unit
Partially contracted basis set               ... off
Rotationally invariant grid construction     ... off

Total number of grid points                  ...    76690
Total number of batches                      ...     1207
Average number of points per batch           ...       63
Average number of grid points per atom       ...     4793
Time for grid setup =    0.536 sec

--------------------
COSX GRID GENERATION
--------------------

GRIDX 1
-------
General Integration Accuracy     IntAcc      ... 3.816
Radial Grid Type                 RadialGrid  ... OptM3 with GC (2021)
Angular Grid (max. ang.)         AngularGrid ... 1 (Lebedev-50)
Angular grid pruning method      GridPruning ... 4 (adaptive)
Weight generation scheme         WeightScheme... Becke
Basis function cutoff            BFCut       ... 1.0000e-10
Integration weight cutoff        WCut        ... 1.0000e-14
Angular grids for H and He will be reduced by one unit
Partially contracted basis set               ... on
Rotationally invariant grid construction     ... off

Total number of grid points                  ...     9811
Total number of batches                      ...      159
Average number of points per batch           ...       61
Average number of grid points per atom       ...      613
UseSFitting                                  ... on

GRIDX 2
-------
General Integration Accuracy     IntAcc      ... 4.020
Radial Grid Type                 RadialGrid  ... OptM3 with GC (2021)
Angular Grid (max. ang.)         AngularGrid ... 2 (Lebedev-110)
Angular grid pruning method      GridPruning ... 4 (adaptive)
Weight generation scheme         WeightScheme... Becke
Basis function cutoff            BFCut       ... 1.0000e-10
Integration weight cutoff        WCut        ... 1.0000e-14
Angular grids for H and He will be reduced by one unit
Partially contracted basis set               ... on
Rotationally invariant grid construction     ... off

Total number of grid points                  ...    21526
Total number of batches                      ...      345
Average number of points per batch           ...       62
Average number of grid points per atom       ...     1345
UseSFitting                                  ... on

GRIDX 3
-------
General Integration Accuracy     IntAcc      ... 4.338
Radial Grid Type                 RadialGrid  ... OptM3 with GC (2021)
Angular Grid (max. ang.)         AngularGrid ... 3 (Lebedev-194)
Angular grid pruning method      GridPruning ... 4 (adaptive)
Weight generation scheme         WeightScheme... Becke
Basis function cutoff            BFCut       ... 1.0000e-10
Integration weight cutoff        WCut        ... 1.0000e-14
Angular grids for H and He will be reduced by one unit
Partially contracted basis set               ... on
Rotationally invariant grid construction     ... off

Total number of grid points                  ...    47342
Total number of batches                      ...      750
Average number of points per batch           ...       63
Average number of grid points per atom       ...     2959
UseSFitting                                  ... on

Time for X-Grid setup             =    1.112 sec


--------------------
CPCM SOLVATION MODEL
--------------------
CPCM parameters:
  Epsilon                                         ...       2.2706
  Refrac                                          ...       1.5011
  Rsolv                                           ...       1.3000
  Surface type                                    ... GAUSSIAN VDW
  Epsilon function type                           ...         CPCM
Solvent:                                     ... BENZENE
SMD-CDS solvent descriptors:
  Soln                                       ...    1.5011
  Soln25                                     ...    1.4972
  Sola                                       ...    0.0000
  Solb                                       ...    0.1400
  Solg                                       ...   40.6200
  Solc                                       ...    1.0000
  Solh                                       ...    0.0000
Radii:
 Radius for H  used is    2.2677 Bohr (=   1.2000 Ang.)
 Radius for C  used is    3.4960 Bohr (=   1.8500 Ang.)
 Radius for B  used is    3.6283 Bohr (=   1.9200 Ang.)
 Radius for O  used is    4.3350 Bohr (=   2.2940 Ang.)
Calculating surface                               ...        done! (  0.0s)
GEPOL surface points                              ...          849
GEPOL Volume                                      ...    1114.4814
GEPOL Surface-area                                ...     623.2113
Calculating surface distance matrix               ...        done! (  0.0s)
Performing Cholesky decomposition & store         ...        done! (  0.0s)
Overall time for CPCM initialization              ...                 0.0s
--------------
SCF ITERATIONS
--------------
ITER       Energy         Delta-E        Max-DP      RMS-DP      [F,P]     Damp
               ***  Starting incremental Fock matrix formation  ***
  0   -407.6833554854   0.000000000000 0.16525836  0.00113293  0.2879335 0.7000
  1   -407.8111281522  -0.127772666733 0.16268732  0.00095865  0.1256004 0.7000
                               ***Turning on DIIS***
  2   -407.8629536649  -0.051825512768 0.18816647  0.00139124  0.0396518 0.0000
  3   -407.9440685410  -0.081114876006 0.17111302  0.00086155  0.0683471 0.0000
  4   -407.9613982692  -0.017329728205 0.04848676  0.00027015  0.0086451 0.0000
  5   -407.9621655795  -0.000767310336 0.01908463  0.00010467  0.0045535 0.0000
                      *** Initiating the SOSCF procedure ***
                           *** Shutting down DIIS ***
                      *** Re-Reading the Fockian *** 
                      *** Removing any level shift *** 
ITER      Energy       Delta-E        Grad      Rot      Max-DP    RMS-DP
  6   -407.96222271  -0.0000571296  0.000193  0.000193  0.007288  0.000046
               *** Restarting incremental Fock matrix formation ***
  7   -407.96222769  -0.0000049767  0.000070  0.000280  0.000540  0.000014
  8   -407.96222755   0.0000001351  0.000131  0.000218  0.000458  0.000004
  9   -407.96222804  -0.0000004869  0.000022  0.000072  0.000188  0.000003
                 **** Energy Check signals convergence ****
              ***Rediagonalizing the Fockian in SOSCF/NRSCF***

               *****************************************************
               *                     SUCCESS                       *
               *           SCF CONVERGED AFTER  10 CYCLES          *
               *****************************************************

Old exchange energy                            =    -13.508719201 Eh
New exchange energy                            =    -13.508733190 Eh
Exchange energy change after final integration =     -0.000013989 Eh
Total energy after final integration           =   -407.962242023 Eh
Final COS-X integration done in                =     6.719 sec

SMD CDS free energy correction energy :                -3.61647     Kcal/mol
Total Energy after SMD CDS correction =              -407.968005231 Eh

----------------
TOTAL SCF ENERGY
----------------

Total Energy       :         -407.96800523 Eh          -11101.37381 eV

Components:
Nuclear Repulsion  :          393.31445393 Eh           10702.63040 eV
Electronic Energy  :         -801.28245916 Eh          -21804.00421 eV
One Electron Energy:        -1333.90399532 Eh          -36297.37304 eV
Two Electron Energy:          532.62153616 Eh           14493.36883 eV
Max COSX asymmetry :            0.00000202 Eh               0.00005 eV
CPCM Dielectric    :           -0.00753549 Eh              -0.20505 eV
SMD CDS (Gcds)     :           -0.00576321 Eh              -0.15682 eV

Virial components:
Potential Energy   :         -813.90959105 Eh          -22147.60593 eV
Kinetic Energy     :          405.94158582 Eh           11046.23213 eV
Virial Ratio       :            2.00499190


DFT components:
N(Alpha)           :       32.000006215891 electrons
N(Beta)            :       32.000006215891 electrons
N(Total)           :       64.000012431781 electrons
E(X)               :      -40.421117684408 Eh       
E(C)               :       -2.122261591685 Eh       
E(XC)              :      -42.543379276093 Eh       
DFET-embed. en.    :        0.000000000000 Eh       
CPCM Solvation Model Properties:
Surface-charge          :           -0.02774727
Charge-correction       :            0.00015314 Eh               0.00417 eV
Free-energy (cav+disp)  :           -0.00576321 Eh              -0.15682 eV

---------------
SCF CONVERGENCE
---------------

  Last Energy change         ...    3.6758e-09  Tolerance :   1.0000e-06
  Last MAX-Density change    ...    1.3323e-15  Tolerance :   1.0000e-05
  Last RMS-Density change    ...    1.3544e-17  Tolerance :   1.0000e-06
  Last Orbital Gradient      ...    2.3715e-05  Tolerance :   5.0000e-05
  Last Orbital Rotation      ...    3.5318e-05  Tolerance :   5.0000e-05

             **** THE GBW FILE WAS UPDATED (Ar-B-diOH-sp.gbw) ****
             **** DENSITY Ar-B-diOH-sp.scfp WAS UPDATED ****
             **** ENERGY FILE WAS UPDATED (Ar-B-diOH-sp.en.tmp) ****
             **** THE GBW FILE WAS UPDATED (Ar-B-diOH-sp.gbw) ****
             **** DENSITY Ar-B-diOH-sp.scfp WAS UPDATED ****
----------------
ORBITAL ENERGIES
----------------

  NO   OCC          E(Eh)            E(eV) 
   0   2.0000     -19.211742      -522.7781 
   1   2.0000     -19.211684      -522.7765 
   2   2.0000     -10.237934      -278.5884 
   3   2.0000     -10.237921      -278.5880 
   4   2.0000     -10.236728      -278.5555 
   5   2.0000     -10.234466      -278.4940 
   6   2.0000     -10.234383      -278.4917 
   7   2.0000     -10.223251      -278.1888 
   8   2.0000      -6.810756      -185.3301 
   9   2.0000      -1.063029       -28.9265 
  10   2.0000      -1.033678       -28.1278 
  11   2.0000      -0.885335       -24.0912 
  12   2.0000      -0.774581       -21.0774 
  13   2.0000      -0.773358       -21.0442 
  14   2.0000      -0.627689       -17.0803 
  15   2.0000      -0.626415       -17.0456 
  16   2.0000      -0.603955       -16.4345 
  17   2.0000      -0.545356       -14.8399 
  18   2.0000      -0.505770       -13.7627 
  19   2.0000      -0.478787       -13.0285 
  20   2.0000      -0.471793       -12.8381 
  21   2.0000      -0.452451       -12.3118 
  22   2.0000      -0.437627       -11.9084 
  23   2.0000      -0.415644       -11.3103 
  24   2.0000      -0.396163       -10.7801 
  25   2.0000      -0.385363       -10.4863 
  26   2.0000      -0.385151       -10.4805 
  27   2.0000      -0.356864        -9.7108 
  28   2.0000      -0.336962        -9.1692 
  29   2.0000      -0.324446        -8.8286 
  30   2.0000      -0.275080        -7.4853 
  31   2.0000      -0.274825        -7.4784 
  32   0.0000      -0.034071        -0.9271 
  33   0.0000      -0.016820        -0.4577 
  34   0.0000       0.033278         0.9055 
  35   0.0000       0.060847         1.6557 
  36   0.0000       0.071869         1.9557 
  37   0.0000       0.078679         2.1410 
  38   0.0000       0.100183         2.7261 
  39   0.0000       0.102568         2.7910 
  40   0.0000       0.114223         3.1082 
  41   0.0000       0.119308         3.2465 
  42   0.0000       0.131206         3.5703 
  43   0.0000       0.154501         4.2042 
  44   0.0000       0.160908         4.3785 
  45   0.0000       0.177452         4.8287 
  46   0.0000       0.188161         5.1201 
  47   0.0000       0.211077         5.7437 
  48   0.0000       0.220077         5.9886 
  49   0.0000       0.223706         6.0874 
  50   0.0000       0.232632         6.3302 
  51   0.0000       0.240584         6.5466 
  52   0.0000       0.256268         6.9734 
  53   0.0000       0.256558         6.9813 
  54   0.0000       0.271129         7.3778 
  55   0.0000       0.279413         7.6032 
  56   0.0000       0.285604         7.7717 
  57   0.0000       0.293706         7.9921 
  58   0.0000       0.306333         8.3357 
  59   0.0000       0.334822         9.1110 
  60   0.0000       0.342955         9.3323 
  61   0.0000       0.352024         9.5791 
  62   0.0000       0.361030         9.8241 
  63   0.0000       0.365762         9.9529 
  64   0.0000       0.378818        10.3082 
  65   0.0000       0.389579        10.6010 
  66   0.0000       0.406575        11.0635 
  67   0.0000       0.412957        11.2371 
  68   0.0000       0.417069        11.3490 
  69   0.0000       0.426199        11.5975 
  70   0.0000       0.443382        12.0650 
  71   0.0000       0.455196        12.3865 
  72   0.0000       0.461077        12.5465 
  73   0.0000       0.465314        12.6618 
  74   0.0000       0.478144        13.0110 
  75   0.0000       0.490682        13.3521 
  76   0.0000       0.493444        13.4273 
  77   0.0000       0.499921        13.6035 
  78   0.0000       0.505327        13.7507 
  79   0.0000       0.518778        14.1167 
  80   0.0000       0.533622        14.5206 
  81   0.0000       0.549073        14.9410 
  82   0.0000       0.565412        15.3857 
  83   0.0000       0.573089        15.5946 
  84   0.0000       0.578985        15.7550 
  85   0.0000       0.614687        16.7265 
  86   0.0000       0.628245        17.0954 
  87   0.0000       0.629047        17.1172 
  88   0.0000       0.643407        17.5080 
  89   0.0000       0.645596        17.5676 
  90   0.0000       0.666247        18.1295 
  91   0.0000       0.669031        18.2052 
  92   0.0000       0.686788        18.6884 
  93   0.0000       0.707158        19.2427 
  94   0.0000       0.709842        19.3158 
  95   0.0000       0.721913        19.6443 
  96   0.0000       0.732689        19.9375 
  97   0.0000       0.744694        20.2642 
  98   0.0000       0.764105        20.7924 
  99   0.0000       0.797102        21.6903 
 100   0.0000       0.798376        21.7249 
 101   0.0000       0.800947        21.7949 
 102   0.0000       0.821066        22.3423 
 103   0.0000       0.834952        22.7202 
 104   0.0000       0.836574        22.7643 
 105   0.0000       0.847888        23.0722 
 106   0.0000       0.889642        24.2084 
 107   0.0000       0.902446        24.5568 
 108   0.0000       0.910648        24.7800 
 109   0.0000       0.933863        25.4117 
 110   0.0000       0.937906        25.5217 
 111   0.0000       0.953291        25.9404 
 112   0.0000       0.966296        26.2942 
 113   0.0000       0.985705        26.8224 
 114   0.0000       0.999248        27.1909 
 115   0.0000       1.006542        27.3894 
 116   0.0000       1.024003        27.8645 
 117   0.0000       1.041067        28.3289 
 118   0.0000       1.059890        28.8411 
 119   0.0000       1.078879        29.3578 
 120   0.0000       1.087874        29.6025 
 121   0.0000       1.090698        29.6794 
 122   0.0000       1.136081        30.9143 
 123   0.0000       1.137999        30.9665 
 124   0.0000       1.145770        31.1780 
 125   0.0000       1.178365        32.0649 
 126   0.0000       1.197776        32.5931 
 127   0.0000       1.199439        32.6384 
 128   0.0000       1.220853        33.2211 
 129   0.0000       1.233714        33.5711 
 130   0.0000       1.242799        33.8183 
 131   0.0000       1.266203        34.4551 
 132   0.0000       1.270224        34.5646 
 133   0.0000       1.295475        35.2517 
 134   0.0000       1.312562        35.7166 
 135   0.0000       1.313550        35.7435 
 136   0.0000       1.328688        36.1554 
 137   0.0000       1.330541        36.2059 
 138   0.0000       1.344993        36.5991 
 139   0.0000       1.364536        37.1309 
 140   0.0000       1.381496        37.5924 
 141   0.0000       1.395893        37.9842 
 142   0.0000       1.431728        38.9593 
 143   0.0000       1.449853        39.4525 
 144   0.0000       1.466034        39.8928 
 145   0.0000       1.482948        40.3531 
 146   0.0000       1.487278        40.4709 
 147   0.0000       1.516686        41.2711 
 148   0.0000       1.532124        41.6912 
 149   0.0000       1.546677        42.0872 
 150   0.0000       1.561956        42.5030 
 151   0.0000       1.593562        43.3630 
 152   0.0000       1.604874        43.6708 
 153   0.0000       1.620815        44.1046 
 154   0.0000       1.638821        44.5946 
 155   0.0000       1.672371        45.5075 
 156   0.0000       1.694287        46.1039 
 157   0.0000       1.711431        46.5704 
 158   0.0000       1.712062        46.5876 
 159   0.0000       1.729319        47.0572 
 160   0.0000       1.743022        47.4301 
 161   0.0000       1.764797        48.0226 
 162   0.0000       1.787953        48.6527 
 163   0.0000       1.797328        48.9078 
 164   0.0000       1.804495        49.1028 
 165   0.0000       1.865482        50.7623 
 166   0.0000       1.868973        50.8573 
 167   0.0000       1.875210        51.0271 
 168   0.0000       1.933820        52.6219 
 169   0.0000       1.943318        52.8804 
 170   0.0000       1.949242        53.0416 
 171   0.0000       1.966604        53.5140 
 172   0.0000       1.970719        53.6260 
 173   0.0000       1.999779        54.4168 
 174   0.0000       2.003153        54.5086 
 175   0.0000       2.017265        54.8926 
 176   0.0000       2.021171        54.9989 
 177   0.0000       2.028953        55.2106 
 178   0.0000       2.124474        57.8099 
 179   0.0000       2.138825        58.2004 
 180   0.0000       2.200884        59.8891 
 181   0.0000       2.227094        60.6023 
 182   0.0000       2.263308        61.5878 
 183   0.0000       2.264576        61.6222 
 184   0.0000       2.269284        61.7504 
 185   0.0000       2.292980        62.3952 
 186   0.0000       2.344901        63.8080 
 187   0.0000       2.352625        64.0182 
 188   0.0000       2.356871        64.1337 
 189   0.0000       2.376933        64.6796 
 190   0.0000       2.400840        65.3302 
 191   0.0000       2.401131        65.3381 
 192   0.0000       2.420787        65.8730 
 193   0.0000       2.428418        66.0806 
 194   0.0000       2.453161        66.7539 
 195   0.0000       2.463396        67.0324 
 196   0.0000       2.487737        67.6948 
 197   0.0000       2.554229        69.5041 
 198   0.0000       2.570265        69.9405 
 199   0.0000       2.644713        71.9663 
 200   0.0000       2.667778        72.5939 
 201   0.0000       2.675367        72.8004 
 202   0.0000       2.709760        73.7363 
 203   0.0000       2.717941        73.9589 
 204   0.0000       2.745487        74.7085 
 205   0.0000       2.756864        75.0181 
 206   0.0000       2.786688        75.8296 
 207   0.0000       2.787853        75.8613 
 208   0.0000       2.803498        76.2871 
 209   0.0000       2.826142        76.9032 
 210   0.0000       2.832189        77.0678 
 211   0.0000       2.845856        77.4397 
 212   0.0000       2.868354        78.0519 
 213   0.0000       2.903405        79.0057 
 214   0.0000       2.903617        79.0114 
 215   0.0000       2.916373        79.3586 
 216   0.0000       2.937774        79.9409 
 217   0.0000       2.949900        80.2709 
 218   0.0000       2.968150        80.7675 
 219   0.0000       2.974721        80.9463 
 220   0.0000       2.995143        81.5020 
 221   0.0000       3.002042        81.6897 
 222   0.0000       3.037360        82.6508 
 223   0.0000       3.038800        82.6900 
 224   0.0000       3.058594        83.2286 
 225   0.0000       3.066082        83.4323 
 226   0.0000       3.080183        83.8160 
 227   0.0000       3.080619        83.8279 
 228   0.0000       3.136102        85.3377 
 229   0.0000       3.142017        85.4986 
 230   0.0000       3.171334        86.2964 
 231   0.0000       3.173931        86.3671 
 232   0.0000       3.184444        86.6531 
 233   0.0000       3.190321        86.8130 
 234   0.0000       3.198210        87.0277 
 235   0.0000       3.210155        87.3527 
 236   0.0000       3.214968        87.4837 
 237   0.0000       3.225532        87.7712 
 238   0.0000       3.252746        88.5117 
 239   0.0000       3.277989        89.1986 
 240   0.0000       3.300562        89.8129 
 241   0.0000       3.320580        90.3576 
 242   0.0000       3.335956        90.7760 
 243   0.0000       3.348033        91.1046 
 244   0.0000       3.358654        91.3936 
 245   0.0000       3.369636        91.6924 
 246   0.0000       3.376184        91.8706 
 247   0.0000       3.400444        92.5308 
 248   0.0000       3.419642        93.0532 
 249   0.0000       3.433031        93.4175 
 250   0.0000       3.443482        93.7019 
 251   0.0000       3.448044        93.8260 
 252   0.0000       3.468885        94.3932 
 253   0.0000       3.470615        94.4402 
 254   0.0000       3.481712        94.7422 
 255   0.0000       3.491344        95.0043 
 256   0.0000       3.499997        95.2398 
 257   0.0000       3.521376        95.8215 
 258   0.0000       3.545060        96.4660 
 259   0.0000       3.567480        97.0761 
 260   0.0000       3.571796        97.1935 
 261   0.0000       3.587267        97.6145 
 262   0.0000       3.644482        99.1714 
 263   0.0000       3.679329       100.1196 
 264   0.0000       3.693955       100.5176 
 265   0.0000       3.705279       100.8258 
 266   0.0000       3.715295       101.0983 
 267   0.0000       3.745381       101.9170 
 268   0.0000       3.768027       102.5332 
 269   0.0000       3.772732       102.6613 
 270   0.0000       3.782485       102.9266 
 271   0.0000       3.792759       103.2062 
 272   0.0000       3.814056       103.7857 
 273   0.0000       3.818434       103.9049 
 274   0.0000       3.844310       104.6090 
 275   0.0000       3.848317       104.7180 
 276   0.0000       3.863164       105.1220 
 277   0.0000       3.888231       105.8041 
 278   0.0000       3.899744       106.1174 
 279   0.0000       3.904000       106.2332 
 280   0.0000       3.950621       107.5019 
 281   0.0000       4.000531       108.8600 
 282   0.0000       4.010695       109.1366 
 283   0.0000       4.018499       109.3489 
 284   0.0000       4.054088       110.3173 
 285   0.0000       4.070351       110.7599 
 286   0.0000       4.084080       111.1335 
 287   0.0000       4.097073       111.4870 
 288   0.0000       4.112639       111.9106 
 289   0.0000       4.158399       113.1558 
 290   0.0000       4.174556       113.5954 
 291   0.0000       4.182068       113.7999 
 292   0.0000       4.191024       114.0436 
 293   0.0000       4.216328       114.7321 
 294   0.0000       4.218252       114.7845 
 295   0.0000       4.244203       115.4906 
 296   0.0000       4.267765       116.1318 
 297   0.0000       4.277078       116.3852 
 298   0.0000       4.287103       116.6580 
 299   0.0000       4.297420       116.9387 
 300   0.0000       4.325681       117.7078 
 301   0.0000       4.332752       117.9002 
 302   0.0000       4.377286       119.1120 
 303   0.0000       4.389435       119.4426 
 304   0.0000       4.413845       120.1068 
 305   0.0000       4.462223       121.4233 
 306   0.0000       4.479960       121.9059 
 307   0.0000       4.512919       122.8028 
 308   0.0000       4.557138       124.0060 
 309   0.0000       4.582110       124.6856 
 310   0.0000       4.622704       125.7902 
 311   0.0000       4.635296       126.1328 
 312   0.0000       4.640968       126.2872 
 313   0.0000       4.689146       127.5982 
 314   0.0000       4.724193       128.5518 
 315   0.0000       4.732031       128.7651 
 316   0.0000       4.774462       129.9197 
 317   0.0000       4.776634       129.9788 
 318   0.0000       4.787086       130.2632 
 319   0.0000       4.807780       130.8264 
 320   0.0000       4.849477       131.9610 
 321   0.0000       4.867595       132.4540 
 322   0.0000       4.943742       134.5261 
 323   0.0000       4.967346       135.1684 
 324   0.0000       4.976099       135.4066 
 325   0.0000       5.005818       136.2152 
 326   0.0000       5.024632       136.7272 
 327   0.0000       5.087098       138.4270 
 328   0.0000       5.179159       140.9321 
 329   0.0000       5.203529       141.5952 
 330   0.0000       5.267809       143.3444 
 331   0.0000       5.315776       144.6496 
 332   0.0000       5.320926       144.7898 
 333   0.0000       5.339907       145.3063 
 334   0.0000       5.364172       145.9665 
 335   0.0000       5.407209       147.1376 
 336   0.0000       5.441912       148.0820 
 337   0.0000       5.509723       149.9272 
 338   0.0000       5.544828       150.8824 
 339   0.0000       5.563164       151.3814 
 340   0.0000       5.623573       153.0252 
 341   0.0000       5.649324       153.7259 
 342   0.0000       5.669248       154.2681 
 343   0.0000       5.735933       156.0827 
 344   0.0000       5.758855       156.7064 
 345   0.0000       5.784441       157.4026 
 346   0.0000       5.844665       159.0414 
 347   0.0000       6.014181       163.6542 
 348   0.0000       6.022296       163.8750 
 349   0.0000       6.056453       164.8045 
 350   0.0000       6.177291       168.0926 
 351   0.0000       6.448558       175.4742 
 352   0.0000       6.577772       178.9903 
 353   0.0000       6.583607       179.1491 
 354   0.0000       6.636829       180.5973 
 355   0.0000       6.654302       181.0728 
 356   0.0000       6.694004       182.1531 
 357   0.0000       6.716464       182.7643 
 358   0.0000       6.740259       183.4118 
 359   0.0000       6.808906       185.2797 
 360   0.0000       6.842291       186.1882 
 361   0.0000       6.898709       187.7234 
 362   0.0000       6.991857       190.2581 
 363   0.0000       6.996593       190.3870 
 364   0.0000       7.335162       199.5999 
 365   0.0000       7.357194       200.1994 
 366   0.0000       7.555545       205.5968 
 367   0.0000       7.637778       207.8345 
 368   0.0000      16.264495       442.5794 
 369   0.0000      22.669385       616.8653 
 370   0.0000      23.114874       628.9877 
 371   0.0000      23.198156       631.2539 
 372   0.0000      23.247397       632.5938 
 373   0.0000      23.296069       633.9183 
 374   0.0000      24.001903       653.1250 
 375   0.0000      43.775601      1191.1947 
 376   0.0000      43.867212      1193.6875 

                    ********************************
                    * MULLIKEN POPULATION ANALYSIS *
                    ********************************

-----------------------
MULLIKEN ATOMIC CHARGES
-----------------------
   0 H :    0.143027
   1 C :   -0.166340
   2 C :   -0.112426
   3 H :    0.145050
   4 C :   -0.166329
   5 H :    0.142775
   6 C :   -0.147699
   7 H :    0.109371
   8 C :   -0.026185
   9 C :   -0.147623
  10 H :    0.109334
  11 B :    0.328063
  12 O :   -0.323989
  13 O :   -0.323917
  14 H :    0.218412
  15 H :    0.218474
Sum of atomic charges:    0.0000000

--------------------------------
MULLIKEN REDUCED ORBITAL CHARGES
--------------------------------
  0 H s       :     0.820446  s :     0.820446
      pz      :     0.013441  p :     0.034758
      px      :     0.010018
      py      :     0.011299
      dz2     :     0.000541  d :     0.001768
      dxz     :     0.000377
      dyz     :     0.000521
      dx2y2   :     0.000169
      dxy     :     0.000161
  1 C s       :     3.187345  s :     3.187345
      pz      :     0.980998  p :     2.860760
      px      :     0.926297
      py      :     0.953466
      dz2     :     0.027194  d :     0.110982
      dxz     :     0.044072
      dyz     :     0.010411
      dx2y2   :     0.010576
      dxy     :     0.018729
      f0      :     0.001626  f :     0.007253
      f+1     :     0.000852
      f-1     :     0.000723
      f+2     :     0.001403
      f-2     :     0.000563
      f+3     :     0.000625
      f-3     :     0.001462
  2 C s       :     3.156902  s :     3.156902
      pz      :     0.899115  p :     2.834218
      px      :     0.997107
      py      :     0.937995
      dz2     :     0.040850  d :     0.114033
      dxz     :     0.026458
      dyz     :     0.023256
      dx2y2   :     0.016741
      dxy     :     0.006728
      f0      :     0.001973  f :     0.007273
      f+1     :     0.000931
      f-1     :     0.001251
      f+2     :     0.000991
      f-2     :     0.001131
      f+3     :     0.000619
      f-3     :     0.000377
  3 H s       :     0.818545  s :     0.818545
      pz      :     0.008595  p :     0.034653
      px      :     0.014981
      py      :     0.011077
      dz2     :     0.000063  d :     0.001752
      dxz     :     0.000875
      dyz     :     0.000017
      dx2y2   :     0.000145
      dxy     :     0.000651
  4 C s       :     3.187955  s :     3.187955
      pz      :     0.975332  p :     2.860135
      px      :     0.932518
      py      :     0.952285
      dz2     :     0.025071  d :     0.110984
      dxz     :     0.047093
      dyz     :     0.010960
      dx2y2   :     0.009922
      dxy     :     0.017938
      f0      :     0.001626  f :     0.007255
      f+1     :     0.000875
      f-1     :     0.000819
      f+2     :     0.001424
      f-2     :     0.000465
      f+3     :     0.000610
      f-3     :     0.001435
  5 H s       :     0.820702  s :     0.820702
      pz      :     0.013155  p :     0.034755
      px      :     0.010344
      py      :     0.011257
      dz2     :     0.000591  d :     0.001768
      dxz     :     0.000298
      dyz     :     0.000493
      dx2y2   :     0.000191
      dxy     :     0.000195
  6 C s       :     3.189290  s :     3.189290
      pz      :     0.965760  p :     2.847598
      px      :     0.930210
      py      :     0.951628
      dz2     :     0.024924  d :     0.103418
      dxz     :     0.037615
      dyz     :     0.010544
      dx2y2   :     0.010283
      dxy     :     0.020052
      f0      :     0.001727  f :     0.007393
      f+1     :     0.000909
      f-1     :     0.000661
      f+2     :     0.001402
      f-2     :     0.000600
      f+3     :     0.000619
      f-3     :     0.001474
  7 H s       :     0.851054  s :     0.851054
      pz      :     0.015757  p :     0.037771
      px      :     0.010486
      py      :     0.011528
      dz2     :     0.000538  d :     0.001804
      dxz     :     0.000413
      dyz     :     0.000539
      dx2y2   :     0.000167
      dxy     :     0.000146
  8 C s       :     3.264139  s :     3.264139
      pz      :     0.799080  p :     2.654971
      px      :     0.936898
      py      :     0.918993
      dz2     :     0.026369  d :     0.099772
      dxz     :     0.030971
      dyz     :     0.023695
      dx2y2   :     0.011308
      dxy     :     0.007429
      f0      :     0.001862  f :     0.007303
      f+1     :     0.001117
      f-1     :     0.001041
      f+2     :     0.001203
      f-2     :     0.001157
      f+3     :     0.000313
      f-3     :     0.000609
  9 C s       :     3.189086  s :     3.189086
      pz      :     0.959560  p :     2.847650
      px      :     0.937622
      py      :     0.950468
      dz2     :     0.022930  d :     0.103491
      dxz     :     0.040593
      dyz     :     0.011053
      dx2y2   :     0.009893
      dxy     :     0.019022
      f0      :     0.001736  f :     0.007396
      f+1     :     0.000919
      f-1     :     0.000757
      f+2     :     0.001432
      f-2     :     0.000507
      f+3     :     0.000613
      f-3     :     0.001433
 10 H s       :     0.851129  s :     0.851129
      pz      :     0.015413  p :     0.037735
      px      :     0.010741
      py      :     0.011581
      dz2     :     0.000588  d :     0.001802
      dxz     :     0.000332
      dyz     :     0.000512
      dx2y2   :     0.000190
      dxy     :     0.000179
 11 B s       :     2.781942  s :     2.781942
      pz      :     0.502993  p :     1.586898
      px      :     0.652747
      py      :     0.431157
      dz2     :     0.067208  d :     0.260944
      dxz     :     0.073352
      dyz     :     0.048167
      dx2y2   :     0.033514
      dxy     :     0.038704
      f0      :     0.010085  f :     0.042154
      f+1     :     0.006721
      f-1     :     0.003729
      f+2     :     0.010775
      f-2     :     0.005556
      f+3     :     0.001881
      f-3     :     0.003406
 12 O s       :     3.721263  s :     3.721263
      pz      :     1.335460  p :     4.584784
      px      :     1.596921
      py      :     1.652402
      dz2     :     0.002415  d :     0.017171
      dxz     :     0.006198
      dyz     :     0.002130
      dx2y2   :     0.002846
      dxy     :     0.003582
      f0      :     0.000171  f :     0.000770
      f+1     :     0.000132
      f-1     :     0.000195
      f+2     :     0.000109
      f-2     :     0.000118
      f+3     :     0.000020
      f-3     :     0.000026
 13 O s       :     3.721279  s :     3.721279
      pz      :     1.326595  p :     4.584689
      px      :     1.592932
      py      :     1.665162
      dz2     :     0.002550  d :     0.017178
      dxz     :     0.006369
      dyz     :     0.001691
      dx2y2   :     0.003074
      dxy     :     0.003493
      f0      :     0.000160  f :     0.000770
      f+1     :     0.000129
      f-1     :     0.000196
      f+2     :     0.000116
      f-2     :     0.000115
      f+3     :     0.000024
      f-3     :     0.000029
 14 H s       :     0.684305  s :     0.684305
      pz      :     0.028078  p :     0.087934
      px      :     0.029137
      py      :     0.030720
      dz2     :     0.002682  d :     0.009349
      dxz     :     0.002439
      dyz     :     0.001980
      dx2y2   :     0.001142
      dxy     :     0.001106
 15 H s       :     0.684266  s :     0.684266
      pz      :     0.027664  p :     0.087913
      px      :     0.029355
      py      :     0.030894
      dz2     :     0.002607  d :     0.009347
      dxz     :     0.002321
      dyz     :     0.001922
      dx2y2   :     0.001289
      dxy     :     0.001209


                     *******************************
                     * LOEWDIN POPULATION ANALYSIS *
                     *******************************

----------------------
LOEWDIN ATOMIC CHARGES
----------------------
   0 H :    0.027739
   1 C :   -0.018836
   2 C :   -0.012935
   3 H :    0.028491
   4 C :   -0.018850
   5 H :    0.027741
   6 C :    0.003378
   7 H :    0.029324
   8 C :   -0.041501
   9 C :    0.003340
  10 H :    0.029300
  11 B :   -0.783298
  12 O :    0.449684
  13 O :    0.449730
  14 H :   -0.086689
  15 H :   -0.086620

-------------------------------
LOEWDIN REDUCED ORBITAL CHARGES
-------------------------------
  0 H s       :     0.798028  s :     0.798028
      pz      :     0.064716  p :     0.146539
      px      :     0.042060
      py      :     0.039764
      dz2     :     0.009313  d :     0.027693
      dxz     :     0.008407
      dyz     :     0.006229
      dx2y2   :     0.001913
      dxy     :     0.001830
  1 C s       :     2.726411  s :     2.726411
      pz      :     0.996953  p :     2.859467
      px      :     1.014744
      py      :     0.847770
      dz2     :     0.098145  d :     0.391057
      dxz     :     0.148627
      dyz     :     0.029660
      dx2y2   :     0.054262
      dxy     :     0.060364
      f0      :     0.010381  f :     0.041902
      f+1     :     0.007211
      f-1     :     0.003378
      f+2     :     0.008462
      f-2     :     0.003636
      f+3     :     0.004288
      f-3     :     0.004546
  2 C s       :     2.727695  s :     2.727695
      pz      :     1.026153  p :     2.850481
      px      :     0.988937
      py      :     0.835391
      dz2     :     0.137319  d :     0.392751
      dxz     :     0.109672
      dyz     :     0.075406
      dx2y2   :     0.053645
      dxy     :     0.016709
      f0      :     0.012440  f :     0.042008
      f+1     :     0.008354
      f-1     :     0.003953
      f+2     :     0.007085
      f-2     :     0.007363
      f+3     :     0.002415
      f-3     :     0.000397
  3 H s       :     0.797908  s :     0.797908
      pz      :     0.033224  p :     0.145992
      px      :     0.073907
      py      :     0.038861
      dz2     :     0.002915  d :     0.027609
      dxz     :     0.008917
      dyz     :     0.000083
      dx2y2   :     0.007857
      dxy     :     0.007838
  4 C s       :     2.726400  s :     2.726400
      pz      :     0.998732  p :     2.859451
      px      :     1.013272
      py      :     0.847446
      dz2     :     0.094663  d :     0.391091
      dxz     :     0.154701
      dyz     :     0.032064
      dx2y2   :     0.052303
      dxy     :     0.057360
      f0      :     0.010590  f :     0.041908
      f+1     :     0.007258
      f-1     :     0.003870
      f+2     :     0.008356
      f-2     :     0.003081
      f+3     :     0.004183
      f-3     :     0.004571
  5 H s       :     0.798032  s :     0.798032
      pz      :     0.062705  p :     0.146533
      px      :     0.044270
      py      :     0.039558
      dz2     :     0.008983  d :     0.027694
      dxz     :     0.008371
      dyz     :     0.005803
      dx2y2   :     0.002318
      dxy     :     0.002218
  6 C s       :     2.717802  s :     2.717802
      pz      :     0.990078  p :     2.837555
      px      :     1.010789
      py      :     0.836689
      dz2     :     0.102142  d :     0.399295
      dxz     :     0.149880
      dyz     :     0.028080
      dx2y2   :     0.056887
      dxy     :     0.062306
      f0      :     0.010562  f :     0.041970
      f+1     :     0.007094
      f-1     :     0.003130
      f+2     :     0.008664
      f-2     :     0.003609
      f+3     :     0.004313
      f-3     :     0.004597
  7 H s       :     0.795987  s :     0.795987
      pz      :     0.064737  p :     0.147113
      px      :     0.042280
      py      :     0.040097
      dz2     :     0.009406  d :     0.027575
      dxz     :     0.008330
      dyz     :     0.006299
      dx2y2   :     0.001846
      dxy     :     0.001695
  8 C s       :     2.715423  s :     2.715423
      pz      :     0.999440  p :     2.869127
      px      :     1.054959
      py      :     0.814727
      dz2     :     0.131820  d :     0.412458
      dxz     :     0.127323
      dyz     :     0.073765
      dx2y2   :     0.051560
      dxy     :     0.027990
      f0      :     0.012743  f :     0.044494
      f+1     :     0.008355
      f-1     :     0.003454
      f+2     :     0.008770
      f-2     :     0.007540
      f+3     :     0.002073
      f-3     :     0.001558
  9 C s       :     2.717735  s :     2.717735
      pz      :     0.991640  p :     2.837525
      px      :     1.008605
      py      :     0.837279
      dz2     :     0.097475  d :     0.399416
      dxz     :     0.157563
      dyz     :     0.030483
      dx2y2   :     0.054857
      dxy     :     0.059039
      f0      :     0.010742  f :     0.041984
      f+1     :     0.007156
      f-1     :     0.003587
      f+2     :     0.008574
      f-2     :     0.003114
      f+3     :     0.004196
      f-3     :     0.004616
 10 H s       :     0.795995  s :     0.795995
      pz      :     0.062695  p :     0.147128
      px      :     0.044438
      py      :     0.039995
      dz2     :     0.009088  d :     0.027576
      dxz     :     0.008284
      dyz     :     0.005887
      dx2y2   :     0.002234
      dxy     :     0.002084
 11 B s       :     2.581059  s :     2.581059
      pz      :     0.642256  p :     1.921226
      px      :     0.801951
      py      :     0.477020
      dz2     :     0.241135  d :     0.990199
      dxz     :     0.298193
      dyz     :     0.168584
      dx2y2   :     0.137161
      dxy     :     0.145127
      f0      :     0.064253  f :     0.290814
      f+1     :     0.051542
      f-1     :     0.029417
      f+2     :     0.062286
      f-2     :     0.046552
      f+3     :     0.017269
      f-3     :     0.019494
 12 O s       :     3.171324  s :     3.171324
      pz      :     1.341911  p :     4.327272
      px      :     1.515882
      py      :     1.469479
      dz2     :     0.010729  d :     0.048675
      dxz     :     0.021921
      dyz     :     0.008298
      dx2y2   :     0.003305
      dxy     :     0.004422
      f0      :     0.000481  f :     0.003046
      f+1     :     0.000747
      f-1     :     0.000382
      f+2     :     0.000666
      f-2     :     0.000475
      f+3     :     0.000122
      f-3     :     0.000173
 13 O s       :     3.171310  s :     3.171310
      pz      :     1.333524  p :     4.327226
      px      :     1.515958
      py      :     1.477743
      dz2     :     0.011277  d :     0.048686
      dxz     :     0.022034
      dyz     :     0.007419
      dx2y2   :     0.003505
      dxy     :     0.004451
      f0      :     0.000483  f :     0.003047
      f+1     :     0.000762
      f-1     :     0.000378
      f+2     :     0.000667
      f-2     :     0.000460
      f+3     :     0.000111
      f-3     :     0.000187
 14 H s       :     0.653893  s :     0.653893
      pz      :     0.115526  p :     0.336157
      px      :     0.122731
      py      :     0.097900
      dz2     :     0.027487  d :     0.096639
      dxz     :     0.024531
      dyz     :     0.020457
      dx2y2   :     0.012511
      dxy     :     0.011653
 15 H s       :     0.653897  s :     0.653897
      pz      :     0.111430  p :     0.336092
      px      :     0.122530
      py      :     0.102132
      dz2     :     0.026854  d :     0.096632
      dxz     :     0.023282
      dyz     :     0.019698
      dx2y2   :     0.013983
      dxy     :     0.012814


                      *****************************
                      * MAYER POPULATION ANALYSIS *
                      *****************************

  NA   - Mulliken gross atomic population
  ZA   - Total nuclear charge
  QA   - Mulliken gross atomic charge
  VA   - Mayer's total valence
  BVA  - Mayer's bonded valence
  FA   - Mayer's free valence

  ATOM       NA         ZA         QA         VA         BVA        FA
  0 H      0.8570     1.0000     0.1430     0.9946     0.9946    -0.0000
  1 C      6.1663     6.0000    -0.1663     3.9871     3.9871    -0.0000
  2 C      6.1124     6.0000    -0.1124     3.9633     3.9633    -0.0000
  3 H      0.8549     1.0000     0.1451     0.9917     0.9917    -0.0000
  4 C      6.1663     6.0000    -0.1663     3.9866     3.9866     0.0000
  5 H      0.8572     1.0000     0.1428     0.9947     0.9947     0.0000
  6 C      6.1477     6.0000    -0.1477     3.9685     3.9685     0.0000
  7 H      0.8906     1.0000     0.1094     1.0130     1.0130     0.0000
  8 C      6.0262     6.0000    -0.0262     3.6885     3.6885     0.0000
  9 C      6.1476     6.0000    -0.1476     3.9680     3.9680    -0.0000
 10 H      0.8907     1.0000     0.1093     1.0130     1.0130     0.0000
 11 B      4.6719     5.0000     0.3281     3.7305     3.7305    -0.0000
 12 O      8.3240     8.0000    -0.3240     2.2772     2.2772    -0.0000
 13 O      8.3239     8.0000    -0.3239     2.2773     2.2773     0.0000
 14 H      0.7816     1.0000     0.2184     1.0271     1.0271     0.0000
 15 H      0.7815     1.0000     0.2185     1.0271     1.0271     0.0000

  Mayer bond orders larger than 0.100000
B(  0-H ,  1-C ) :   0.9627 B(  1-C ,  2-C ) :   1.4382 B(  1-C ,  9-C ) :   1.4444 
B(  2-C ,  3-H ) :   0.9611 B(  2-C ,  4-C ) :   1.4378 B(  4-C ,  5-H ) :   0.9630 
B(  4-C ,  6-C ) :   1.4443 B(  6-C ,  7-H ) :   0.9642 B(  6-C ,  8-C ) :   1.3701 
B(  8-C ,  9-C ) :   1.3694 B(  8-C , 11-B ) :   0.9687 B(  9-C , 10-H ) :   0.9642 
B( 11-B , 12-O ) :   1.2967 B( 11-B , 13-O ) :   1.2966 B( 12-O , 15-H ) :   0.9784 
B( 13-O , 14-H ) :   0.9783 

-------
TIMINGS
-------

Total SCF time: 0 days 0 hours 0 min 56 sec 

Total time                  ....      56.854 sec
Sum of individual times     ....      53.897 sec  ( 94.8%)

Fock matrix formation       ....      50.068 sec  ( 88.1%)
  Split-RI-J                ....       3.226 sec  (  6.4% of F)
  Chain of spheres X        ....      28.624 sec  ( 57.2% of F)
  XC integration            ....       8.273 sec  ( 16.5% of F)
    Basis function eval.    ....       0.884 sec  ( 10.7% of XC)
    Density eval.           ....       1.495 sec  ( 18.1% of XC)
    XC-Functional eval.     ....       0.408 sec  (  4.9% of XC)
    XC-Potential eval.      ....       1.450 sec  ( 17.5% of XC)
Diagonalization             ....       0.403 sec  (  0.7%)
Density matrix formation    ....       0.031 sec  (  0.1%)
Population analysis         ....       0.345 sec  (  0.6%)
Initial guess               ....       0.523 sec  (  0.9%)
Orbital Transformation      ....       0.000 sec  (  0.0%)
Orbital Orthonormalization  ....       0.000 sec  (  0.0%)
DIIS solution               ....       0.561 sec  (  1.0%)
SOSCF solution              ....       0.156 sec  (  0.3%)
Grid generation             ....       1.809 sec  (  3.2%)

Maximum memory used throughout the entire SCF-calculation: 103.2 MB


-------------------------------------------------------------------------------
                          DFT DISPERSION CORRECTION                            
                                                                               
                              DFTD3 V3.1  Rev 1                                
                          USING Becke-Johnson damping                          
-------------------------------------------------------------------------------
The PBE0 functional is recognized
Active option DFTDOPT                   ...         4   

molecular C6(AA) [au] = 2951.303749 


            DFT-D V3
 parameters
 s6 scaling factor         :     1.0000 
 a1 scaling factor         :     0.4145 
 s8 scaling factor         :     1.2177 
 a2 scaling factor         :     4.8593 
 ad hoc parameters k1-k3   :    16.0000     1.3333    -4.0000 

 Edisp/kcal,au: -8.714257555361  -0.013887051887 
 E6   /kcal   :  -5.398676679 
 E8   /kcal   :  -3.315580876 
 % E8         :  38.047772344 

-------------------------   ----------------
Dispersion correction           -0.013887052
-------------------------   ----------------


-------------------------   --------------------
FINAL SINGLE POINT ENERGY      -407.981892283374
-------------------------   --------------------


                            ***************************************
                            *     ORCA property calculations      *
                            ***************************************

                                    ---------------------
                                    Active property flags
                                    ---------------------
   (+) Dipole Moment


------------------------------------------------------------------------------
                       ORCA ELECTRIC PROPERTIES CALCULATION
------------------------------------------------------------------------------

Dipole Moment Calculation                       ... on
Quadrupole Moment Calculation                   ... off
Polarizability Calculation                      ... off
GBWName                                         ... Ar-B-diOH-sp.gbw
Electron density                                ... Ar-B-diOH-sp.scfp
The origin for moment calculation is the CENTER OF MASS  = ( 0.313028, -0.124161  1.860926)

-------------
DIPOLE MOMENT
-------------
                                X             Y             Z
Electronic contribution:     -4.62545      -0.30864      -0.13282
Nuclear contribution   :      5.97243       0.39856       0.16848
                        -----------------------------------------
Total Dipole Moment    :      1.34698       0.08992       0.03566
                        -----------------------------------------
Magnitude (a.u.)       :      1.35045
Magnitude (Debye)      :      3.43256



--------------------
Rotational spectrum 
--------------------
 
Rotational constants in cm-1:     0.121946     0.037196     0.028970 
Rotational constants in MHz :  3655.844895  1115.115802   868.488730 

 Dipole components along the rotational axes: 
x,y,z [a.u.] :     1.350445     0.002331     0.000050 
x,y,z [Debye]:     3.432558     0.005925     0.000127 

 

Timings for individual modules:

Sum of individual times         ...       62.869 sec (=   1.048 min)
GTO integral calculation        ...        3.462 sec (=   0.058 min)   5.5 %
SCF iterations                  ...       59.407 sec (=   0.990 min)  94.5 %
                             ****ORCA TERMINATED NORMALLY****
TOTAL RUN TIME: 0 days 0 hours 1 minutes 7 seconds 196 msec
