
                                 *****************
                                 * O   R   C   A *
                                 *****************

                                            #,                                       
                                            ###                                      
                                            ####                                     
                                            #####                                    
                                            ######                                   
                                           ########,                                 
                                     ,,################,,,,,                         
                               ,,#################################,,                 
                          ,,##########################################,,             
                       ,#########################################, ''#####,          
                    ,#############################################,,   '####,        
                  ,##################################################,,,,####,       
                ,###########''''           ''''###############################       
              ,#####''   ,,,,##########,,,,          '''####'''          '####       
            ,##' ,,,,###########################,,,                        '##       
           ' ,,###''''                  '''############,,,                           
         ,,##''                                '''############,,,,        ,,,,,,###''
      ,#''                                            '''#######################'''  
     '                                                          ''''####''''         
             ,#######,   #######,   ,#######,      ##                                
            ,#'     '#,  ##    ##  ,#'     '#,    #''#        ######   ,####,        
            ##       ##  ##   ,#'  ##            #'  '#       #        #'  '#        
            ##       ##  #######   ##           ,######,      #####,   #    #        
            '#,     ,#'  ##    ##  '#,     ,#' ,#      #,         ##   #,  ,#        
             '#######'   ##     ##  '#######'  #'      '#     #####' # '####'        



                  #######################################################
                  #                        -***-                        #
                  #          Department of theory and spectroscopy      #
                  #    Directorship and core code : Frank Neese         #
                  #        Max Planck Institute fuer Kohlenforschung    #
                  #                Kaiser Wilhelm Platz 1               #
                  #                 D-45470 Muelheim/Ruhr               #
                  #                      Germany                        #
                  #                                                     #
                  #                  All rights reserved                #
                  #                        -***-                        #
                  #######################################################


                         Program Version 5.0.4 -  RELEASE  -


 With contributions from (in alphabetic order):
   Daniel Aravena         : Magnetic Suceptibility
   Michael Atanasov       : Ab Initio Ligand Field Theory (pilot matlab implementation)
   Alexander A. Auer      : GIAO ZORA, VPT2 properties, NMR spectrum
   Ute Becker             : Parallelization
   Giovanni Bistoni       : ED, misc. LED, open-shell LED, HFLD
   Martin Brehm           : Molecular dynamics
   Dmytro Bykov           : SCF Hessian
   Vijay G. Chilkuri      : MRCI spin determinant printing, contributions to CSF-ICE
   Dipayan Datta          : RHF DLPNO-CCSD density
   Achintya Kumar Dutta   : EOM-CC, STEOM-CC
   Dmitry Ganyushin       : Spin-Orbit,Spin-Spin,Magnetic field MRCI
   Miquel Garcia          : C-PCM and meta-GGA Hessian, CC/C-PCM, Gaussian charge scheme
   Yang Guo               : DLPNO-NEVPT2, F12-NEVPT2, CIM, IAO-localization
   Andreas Hansen         : Spin unrestricted coupled pair/coupled cluster methods
   Benjamin Helmich-Paris : MC-RPA, TRAH-SCF, COSX integrals
   Lee Huntington         : MR-EOM, pCC
   Robert Izsak           : Overlap fitted RIJCOSX, COSX-SCS-MP3, EOM
   Marcus Kettner         : VPT2
   Christian Kollmar      : KDIIS, OOCD, Brueckner-CCSD(T), CCSD density, CASPT2, CASPT2-K
   Simone Kossmann        : Meta GGA functionals, TD-DFT gradient, OOMP2, MP2 Hessian
   Martin Krupicka        : Initial AUTO-CI
   Lucas Lang             : DCDCAS
   Marvin Lechner         : AUTO-CI (C++ implementation), FIC-MRCC
   Dagmar Lenk            : GEPOL surface, SMD
   Dimitrios Liakos       : Extrapolation schemes; Compound Job, initial MDCI parallelization
   Dimitrios Manganas     : Further ROCIS development; embedding schemes
   Dimitrios Pantazis     : SARC Basis sets
   Anastasios Papadopoulos: AUTO-CI, single reference methods and gradients
   Taras Petrenko         : DFT Hessian,TD-DFT gradient, ASA, ECA, R-Raman, ABS, FL, XAS/XES, NRVS
   Peter Pinski           : DLPNO-MP2, DLPNO-MP2 Gradient
   Christoph Reimann      : Effective Core Potentials
   Marius Retegan         : Local ZFS, SOC
   Christoph Riplinger    : Optimizer, TS searches, QM/MM, DLPNO-CCSD(T), (RO)-DLPNO pert. Triples
   Tobias Risthaus        : Range-separated hybrids, TD-DFT gradient, RPA, STAB
   Michael Roemelt        : Original ROCIS implementation
   Masaaki Saitow         : Open-shell DLPNO-CCSD energy and density
   Barbara Sandhoefer     : DKH picture change effects
   Avijit Sen             : IP-ROCIS
   Kantharuban Sivalingam : CASSCF convergence, NEVPT2, FIC-MRCI
   Bernardo de Souza      : ESD, SOC TD-DFT
   Georgi Stoychev        : AutoAux, RI-MP2 NMR, DLPNO-MP2 response
   Willem Van den Heuvel  : Paramagnetic NMR
   Boris Wezisla          : Elementary symmetry handling
   Frank Wennmohs         : Technical directorship


 We gratefully acknowledge several colleagues who have allowed us to
 interface, adapt or use parts of their codes:
   Stefan Grimme, W. Hujo, H. Kruse, P. Pracht,  : VdW corrections, initial TS optimization,
                  C. Bannwarth, S. Ehlert          DFT functionals, gCP, sTDA/sTD-DF
   Ed Valeev, F. Pavosevic, A. Kumar             : LibInt (2-el integral package), F12 methods
   Garnet Chan, S. Sharma, J. Yang, R. Olivares  : DMRG
   Ulf Ekstrom                                   : XCFun DFT Library
   Mihaly Kallay                                 : mrcc  (arbitrary order and MRCC methods)
   Jiri Pittner, Ondrej Demel                    : Mk-CCSD
   Frank Weinhold                                : gennbo (NPA and NBO analysis)
   Christopher J. Cramer and Donald G. Truhlar   : smd solvation model
   Lars Goerigk                                  : TD-DFT with DH, B97 family of functionals
   V. Asgeirsson, H. Jonsson                     : NEB implementation
   FAccTs GmbH                                   : IRC, NEB, NEB-TS, DLPNO-Multilevel, CI-OPT
                                                   MM, QMMM, 2- and 3-layer-ONIOM, Crystal-QMMM,
                                                   LR-CPCM, SF, NACMEs, symmetry and pop. for TD-DFT,
                                                   nearIR, NL-DFT gradient (VV10), updates on ESD,
                                                   ML-optimized integration grids
   S Lehtola, MJT Oliveira, MAL Marques          : LibXC Library
   Liviu Ungur et al                             : ANISO software


 Your calculation uses the libint2 library for the computation of 2-el integrals
 For citations please refer to: http://libint.valeyev.net

 Your ORCA version has been built with support for libXC version: 5.1.0
 For citations please refer to: https://tddft.org/programs/libxc/

 This ORCA versions uses:
   CBLAS   interface :  Fast vector & matrix operations
   LAPACKE interface :  Fast linear algebra routines
   SCALAPACK package :  Parallel linear algebra routines
   Shared memory     :  Shared parallel matrices
   BLAS/LAPACK       :  OpenBLAS 0.3.15  USE64BITINT DYNAMIC_ARCH NO_AFFINITY Zen SINGLE_THREADED
        Core in use  :  Zen
   Copyright (c) 2011-2014, The OpenBLAS Project


Your calculation utilizes the atom-pairwise dispersion correction
with the Becke-Johnson damping scheme (D3BJ)
Cite in your paper:
S.Grimme, S.Ehrlich, L.Goerigk, J Comput Chem, (2011), 32, 1456–1465 
S.Grimme, J.Antony, S.Ehrlich and H.Krieg, J.Chem.Phys., 132, (2010), 154104 
   

Your calculation utilizes the SMD solvation module
Please cite in your paper:
A.V. Marenich, C.J. Cramer, D.G. Truhlar J. Phys. Chem. B, 113, (2009), 6378 

================================================================================

----- Orbital basis set information -----
Your calculation utilizes the basis: def2-SVP
   F. Weigend and R. Ahlrichs, Phys. Chem. Chem. Phys. 7, 3297 (2005).

The basis set includes element-specific modifications.

Your calculation utilizes the basis: def2-SVPD
   F. Weigend and R. Ahlrichs, Phys. Chem. Chem. Phys. 7, 3297 (2005).
   D. Rappoport and F. Furche, J. Chem. Phys. 133 134105 (2010).

----- AuxJ basis set information -----
Your calculation utilizes the auxiliary basis: def2/J
   F. Weigend, Phys. Chem. Chem. Phys. 8, 1057 (2006).

================================================================================
                                        WARNINGS
                       Please study these warnings very carefully!
================================================================================

WARNING: Gradients needed for Numerical Frequencies
  ===> : Setting RunTyp to EnGrad

WARNING: The environment variable RSH_COMMAND is not set!
  ===> : All Displacements for the Numerical Hessian or Gradient calculation
         will be started on localhost

INFO   : the flag for use of the SHARK integral package has been found!

================================================================================
                                       INPUT FILE
================================================================================
NAME = Ar-B-diOH-freq.inp
|  1> # SMD for more accurate results
|  2> ! PBE0 D3BJ def2-SVP CPCM printbasis
|  3> ! numfreq
|  4> 
|  5> %basis
|  6>   newgto O "def2-SVPD" end
|  7> end
|  8> 
|  9> %cpcm
| 10>   smd true
| 11>   SMDsolvent "BENZENE"
| 12> end
| 13> 
| 14> %pal
| 15>   nprocs 4
| 16> end
| 17> 
| 18> %maxcore 1500
| 19> 
| 20> * xyz 0 1
| 21> H      2.61425    0.18143    3.20847
| 22> C      2.10208    0.10732    2.24590
| 23> C      2.83723    0.11204    1.06061
| 24> H      3.92740    0.18442    1.09192
| 25> C      2.17690    0.02426   -0.16470
| 26> H      2.74833    0.02310   -1.09626
| 27> C      0.78670   -0.06380   -0.19941
| 28> H      0.29357   -0.14138   -1.17421
| 29> C      0.02339   -0.07507    0.97987
| 30> C      0.71279    0.01018    2.20077
| 31> H      0.15862    0.01821    3.14539
| 32> B     -1.54906   -0.17995    0.93604
| 33> O     -2.28150    0.16567   -0.16149
| 34> O     -2.28705   -0.62341    1.99393
| 35> H     -1.76116   -0.91553    2.74245
| 36> H     -1.75996    0.52773   -0.88196
| 37> *
| 38> 
| 39>                          ****END OF INPUT****
================================================================================

                     *******************************
                     * Energy+Gradient Calculation *
                     *******************************

---------------------------------
CARTESIAN COORDINATES (ANGSTROEM)
---------------------------------
  H      2.614250    0.181430    3.208470
  C      2.102080    0.107320    2.245900
  C      2.837230    0.112040    1.060610
  H      3.927400    0.184420    1.091920
  C      2.176900    0.024260   -0.164700
  H      2.748330    0.023100   -1.096260
  C      0.786700   -0.063800   -0.199410
  H      0.293570   -0.141380   -1.174210
  C      0.023390   -0.075070    0.979870
  C      0.712790    0.010180    2.200770
  H      0.158620    0.018210    3.145390
  B     -1.549060   -0.179950    0.936040
  O     -2.281500    0.165670   -0.161490
  O     -2.287050   -0.623410    1.993930
  H     -1.761160   -0.915530    2.742450
  H     -1.759960    0.527730   -0.881960

----------------------------
CARTESIAN COORDINATES (A.U.)
----------------------------
  NO LB      ZA    FRAG     MASS         X           Y           Z
   0 H     1.0000    0     1.008    4.940217    0.342853    6.063130
   1 C     6.0000    0    12.011    3.972356    0.202805    4.244136
   2 C     6.0000    0    12.011    5.361588    0.211725    2.004262
   3 H     1.0000    0     1.008    7.421710    0.348503    2.063430
   4 C     6.0000    0    12.011    4.113745    0.045845   -0.311238
   5 H     1.0000    0     1.008    5.193591    0.043653   -2.071631
   6 C     6.0000    0    12.011    1.486648   -0.120565   -0.376830
   7 H     1.0000    0     1.008    0.554767   -0.267169   -2.218935
   8 C     6.0000    0    12.011    0.044201   -0.141862    1.851686
   9 C     6.0000    0    12.011    1.346978    0.019237    4.158853
  10 H     1.0000    0     1.008    0.299748    0.034412    5.943926
  11 B     5.0000    0    10.810   -2.927299   -0.340056    1.768859
  12 O     8.0000    0    15.999   -4.311410    0.313071   -0.305172
  13 O     8.0000    0    15.999   -4.321898   -1.178074    3.767982
  14 H     1.0000    0     1.008   -3.328110   -1.730101    5.182479
  15 H     1.0000    0     1.008   -3.325842    0.997265   -1.666663

--------------------------------
INTERNAL COORDINATES (ANGSTROEM)
--------------------------------
 H      0   0   0     0.000000000000     0.00000000     0.00000000
 C      1   0   0     1.092863855153     0.00000000     0.00000000
 C      2   1   0     1.394768864364   120.08279536     0.00000000
 H      3   2   1     1.093018668368   120.10483704     0.33019149
 C      3   2   1     1.394677609127   119.79157335   180.33719692
 H      5   3   2     1.092857549775   120.09237988   180.26922101
 C      5   3   2     1.393418597443   119.88317370     0.18452651
 H      7   5   3     1.095185323724   118.41661502   180.57874091
 C      7   5   3     1.404802650695   121.44624510   359.59599399
 C      2   1   3     1.393412932551   120.03420517   180.10764143
 H     10   2   1     1.095205831887   118.42793347     0.46275254
 B      9   7   5     1.576553166182   121.27451219   180.21778563
 O     12   9   7     1.363999134494   122.75825645   338.04426792
 O     12   9   7     1.363971137451   122.66444770   158.07831248
 H     14  12   9     0.960300253514   114.02591985   356.39152787
 H     13  12   9     0.960296014831   114.05338724   356.44286514

---------------------------
INTERNAL COORDINATES (A.U.)
---------------------------
 H      0   0   0     0.000000000000     0.00000000     0.00000000
 C      1   0   0     2.065213387901     0.00000000     0.00000000
 C      2   1   0     2.635731173769   120.08279536     0.00000000
 H      3   2   1     2.065505942478   120.10483704     0.33019149
 C      3   2   1     2.635558726362   119.79157335   180.33719692
 H      5   3   2     2.065201472463   120.09237988   180.26922101
 C      5   3   2     2.633179539080   119.88317370     0.18452651
 H      7   5   3     2.069600327728   118.41661502   180.57874091
 C      7   5   3     2.654692282020   121.44624510   359.59599399
 C      2   1   3     2.633168833985   120.03420517   180.10764143
 H     10   2   1     2.069639082540   118.42793347     0.46275254
 B      9   7   5     2.979253719651   121.27451219   180.21778563
 O     12   9   7     2.577584811099   122.75825645   338.04426792
 O     12   9   7     2.577531904356   122.66444770   158.07831248
 H     14  12   9     1.814704485478   114.02591985   356.39152787
 H     13  12   9     1.814696475526   114.05338724   356.44286514

---------------------
BASIS SET INFORMATION
---------------------
There are 4 groups of distinct atoms

 Group   1 Type H   : 4s1p contracted to 2s1p pattern {31/1}
 Group   2 Type C   : 7s4p1d contracted to 3s2p1d pattern {511/31/1}
 Group   3 Type B   : 7s4p1d contracted to 3s2p1d pattern {511/31/1}
 Group   4 Type O   : 8s5p2d contracted to 4s3p2d pattern {5111/311/11}

Atom   0H    basis set group =>   1
Atom   1C    basis set group =>   2
Atom   2C    basis set group =>   2
Atom   3H    basis set group =>   1
Atom   4C    basis set group =>   2
Atom   5H    basis set group =>   1
Atom   6C    basis set group =>   2
Atom   7H    basis set group =>   1
Atom   8C    basis set group =>   2
Atom   9C    basis set group =>   2
Atom  10H    basis set group =>   1
Atom  11B    basis set group =>   3
Atom  12O    basis set group =>   4
Atom  13O    basis set group =>   4
Atom  14H    basis set group =>   1
Atom  15H    basis set group =>   1

-------------------------
BASIS SET IN INPUT FORMAT
-------------------------

 # Basis set for element : H 
 NewGTO H 
 S 3 
   1      13.0107010000      0.0334854848
   2       1.9622572000      0.2347218709
   3       0.4445379600      0.8137702853
 S 1 
   1       0.1219496200      1.0000000000
 P 1 
   1       0.8000000000      1.0000000000
  end;

 # Basis set for element : B 
 NewGTO B 
 S 5 
   1     839.3183008600     -0.0056288836
   2     126.2646484300     -0.0418327946
   3      28.6206007630     -0.1841748812
   4       7.8793722710     -0.4683965503
   5       2.4088857172     -0.4445793088
 S 1 
   1       0.2510510904      1.0000000000
 S 1 
   1       0.0836488661      1.0000000000
 P 3 
   1       6.0332223619     -0.0540325004
   2       1.2499157866     -0.3019403439
   3       0.3387167635     -0.7717079166
 P 1 
   1       0.0964156324      1.0000000000
 D 1 
   1       0.5000000000      1.0000000000
  end;

 # Basis set for element : C 
 NewGTO C 
 S 5 
   1    1238.4016938000      0.0055173650
   2     186.2900499200      0.0410888285
   3      42.2511763460      0.1822538213
   4      11.6765579320      0.4682845944
   5       3.5930506482      0.4457581734
 S 1 
   1       0.4024514736      1.0000000000
 S 1 
   1       0.1309018267      1.0000000000
 P 3 
   1       9.4680970621      0.0568883320
   2       2.0103545142      0.3129405934
   3       0.5477100471      0.7606501651
 P 1 
   1       0.1526861379      1.0000000000
 D 1 
   1       0.8000000000      1.0000000000
  end;

 # Basis set for element : O 
 NewGTO O 
 S 5 
   1    2266.1767785000     -0.0053893504
   2     340.8701019100     -0.0402347214
   3      77.3631351670     -0.1800818421
   4      21.4796449400     -0.4682885766
   5       6.6589433124     -0.4469261716
 S 1 
   1       0.8097597567      1.0000000000
 S 1 
   1       0.2553077223      1.0000000000
 P 3 
   1      17.7215043170      0.0626302488
   2       3.8635505440      0.3333113849
   3       1.0480920883      0.7414863830
 P 1 
   1       0.2764154441      1.0000000000
 D 1 
   1       1.2000000000      1.0000000000
 S 1 
   1       0.0765724533      1.0000000000
 P 1 
   1       0.0690022764      1.0000000000
 D 1 
   1       0.1799202432      1.0000000000
  end;

---------------------------------
AUXILIARY/J BASIS SET INFORMATION
---------------------------------
There are 4 groups of distinct atoms

 Group   1 Type H   : 5s2p1d contracted to 3s1p1d pattern {311/2/1}
 Group   2 Type C   : 12s5p4d2f1g contracted to 6s4p3d1f1g pattern {711111/2111/211/2/1}
 Group   3 Type B   : 12s5p4d2f1g contracted to 6s4p3d1f1g pattern {711111/2111/211/2/1}
 Group   4 Type O   : 12s5p4d2f1g contracted to 6s4p3d1f1g pattern {711111/2111/211/2/1}

Atom   0H    basis set group =>   1
Atom   1C    basis set group =>   2
Atom   2C    basis set group =>   2
Atom   3H    basis set group =>   1
Atom   4C    basis set group =>   2
Atom   5H    basis set group =>   1
Atom   6C    basis set group =>   2
Atom   7H    basis set group =>   1
Atom   8C    basis set group =>   2
Atom   9C    basis set group =>   2
Atom  10H    basis set group =>   1
Atom  11B    basis set group =>   3
Atom  12O    basis set group =>   4
Atom  13O    basis set group =>   4
Atom  14H    basis set group =>   1
Atom  15H    basis set group =>   1

-------------------------------------
AUXILIARY/J BASIS SET IN INPUT FORMAT
-------------------------------------

 # Auxiliary/J basis set for element : H 
 NewAuxJGTO H 
 S 3 
   1      15.6752927000      0.1007184237
   2       3.6063578000      0.3404257499
   3       1.2080016000      0.6491996172
 S 1 
   1       0.4726794000      1.0000000000
 S 1 
   1       0.2018100000      1.0000000000
 P 2 
   1       2.0281365000      0.5596620919
   2       0.5358730000      0.5596620919
 D 1 
   1       2.2165124000      1.0000000000
  end;

 # Auxiliary/J basis set for element : B 
 NewAuxJGTO B 
 S 7 
   1    1322.2016723000      0.0130721780
   2     458.2370653000      0.0281065289
   3     168.0023641000      0.0968125842
   4      64.9577690000      0.2258335225
   5      26.3871856000      0.3821491110
   6      11.2108611000      0.3266991672
   7       4.9554460000      0.0770367109
 S 1 
   1       2.2652825000     -1.0000000000
 S 1 
   1       1.0638086000      1.0000000000
 S 1 
   1       0.5095187000      1.0000000000
 S 1 
   1       0.2469859000      1.0000000000
 S 1 
   1       0.1202089000      1.0000000000
 P 2 
   1       9.3560736000     -0.5615847160
   2       3.9743131000     -0.4920798837
 P 1 
   1       1.6645147000      1.0000000000
 P 1 
   1       0.6913035000     -1.0000000000
 P 1 
   1       0.2863135000      1.0000000000
 D 2 
   1       2.1120313000      0.3924108444
   2       0.7780769000      0.6972711530
 D 1 
   1       0.3277101000      1.0000000000
 D 1 
   1       0.1449465000      1.0000000000
 F 2 
   1       1.0582718000      0.7745907102
   2       0.4010000000      0.3199796706
 G 1 
   1       0.6514300000     -1.0000000000
  end;

 # Auxiliary/J basis set for element : C 
 NewAuxJGTO C 
 S 7 
   1    1861.0916331000      0.0134602335
   2     642.9939764000      0.0299160374
   3     235.1105725000      0.1008649584
   4      90.7028894000      0.2370970548
   5      36.7794552000      0.3924037254
   6      15.6046273000      0.3195862154
   7       6.8907294000      0.0530104441
 S 1 
   1       3.1478850000     -1.0000000000
 S 1 
   1       1.4777287000      1.0000000000
 S 1 
   1       0.7076466000      1.0000000000
 S 1 
   1       0.3430122000      1.0000000000
 S 1 
   1       0.1669453000      1.0000000000
 P 2 
   1      13.5472892000     -0.6769313712
   2       5.4669419000     -0.3779500978
 P 1 
   1       2.1751721000      1.0000000000
 P 1 
   1       0.8582194000      1.0000000000
 P 1 
   1       0.3376720000      1.0000000000
 D 2 
   1       5.9287253000     -0.3533329857
   2       1.9809209000     -0.7456525731
 D 1 
   1       0.8055417000     -1.0000000000
 D 1 
   1       0.3531244000     -1.0000000000
 F 2 
   1       1.6755626000      0.6311076882
   2       0.5997536000      0.4968166032
 G 1 
   1       1.0024600000     -1.0000000000
  end;

 # Auxiliary/J basis set for element : O 
 NewAuxJGTO O 
 S 7 
   1    2876.8216605000      0.0168151159
   2    1004.7443032000      0.0340137548
   3     369.7579954000      0.1194951309
   4     142.9442404000      0.2664627624
   5      57.8366425000      0.4202764046
   6      24.3864983000      0.2765077335
   7      10.6622662000      0.0057008815
 S 1 
   1       4.8070437000     -1.0000000000
 S 1 
   1       2.2210770000      1.0000000000
 S 1 
   1       1.0447795000      1.0000000000
 S 1 
   1       0.4968425000      1.0000000000
 S 1 
   1       0.2371384000      1.0000000000
 P 2 
   1      64.2613382000     -0.2731534179
   2      16.3006076000     -0.8168011598
 P 1 
   1       4.3550542000      1.0000000000
 P 1 
   1       1.2019554000      1.0000000000
 P 1 
   1       0.3354196000      1.0000000000
 D 2 
   1       9.2146611000     -0.4661230638
   2       2.8435251000     -0.6600908911
 D 1 
   1       0.9955759000     -1.0000000000
 D 1 
   1       0.3649441000     -1.0000000000
 F 2 
   1       2.6420115000      0.5931563945
   2       0.7345613000      0.5931563945
 G 1 
   1       1.3931000000     -1.0000000000
  end;



           ************************************************************
           *        Program running with 4 parallel MPI-processes     *
           *              working on a common directory               *
           ************************************************************
------------------------------------------------------------------------------
                           ORCA GTO INTEGRAL CALCULATION
                           -- RI-GTO INTEGRALS CHOSEN --
------------------------------------------------------------------------------
------------------------------------------------------------------------------
                   ___                                                        
                  /   \      - P O W E R E D   B Y -                         
                 /     \                                                     
                 |  |  |   _    _      __       _____    __    __             
                 |  |  |  | |  | |    /  \     |  _  \  |  |  /  |          
                  \  \/   | |  | |   /    \    | | | |  |  | /  /          
                 / \  \   | |__| |  /  /\  \   | |_| |  |  |/  /          
                |  |  |   |  __  | /  /__\  \  |    /   |      \           
                |  |  |   | |  | | |   __   |  |    \   |  |\   \          
                \     /   | |  | | |  |  |  |  | |\  \  |  | \   \       
                 \___/    |_|  |_| |__|  |__|  |_| \__\ |__|  \__/        
                                                                              
                      - O R C A' S   B I G   F R I E N D -                    
                                      &                                       
                       - I N T E G R A L  F E E D E R -                       
                                                                              
 v1 FN, 2020, v2 2021                                                         
------------------------------------------------------------------------------


Reading SHARK input file Ar-B-diOH-freq.SHARKINP.tmp ... ok
----------------------
SHARK INTEGRAL PACKAGE
----------------------

Number of atoms                             ...     16
Number of basis functions                   ...    179
Number of shells                            ...     81
Maximum angular momentum                    ...      2
Integral batch strategy                     ... SHARK/LIBINT Hybrid
RI-J (if used) integral strategy            ... SPLIT-RIJ (Revised 2003 algorithm where possible)
Printlevel                                  ...      1
Contraction scheme used                     ... SEGMENTED contraction
Coulomb Range Separation                    ... NOT USED
Exchange Range Separation                   ... NOT USED
Finite Nucleus Model                        ... NOT USED
Auxiliary Coulomb fitting basis             ... AVAILABLE
   # of basis functions in Aux-J            ...    518
   # of shells in Aux-J                     ...    170
   Maximum angular momentum in Aux-J        ...      4
Auxiliary J/K fitting basis                 ... NOT available
Auxiliary Correlation fitting basis         ... NOT available
Auxiliary 'external' fitting basis          ... NOT available
Integral threshold                          ...     2.500000e-11
Primitive cut-off                           ...     2.500000e-12
Primitive pair pre-selection threshold      ...     2.500000e-12

Calculating pre-screening integrals         ... done (  0.0 sec) Dimension = 81
Organizing shell pair data                  ... done (  0.1 sec)
Shell pair information
Total number of shell pairs                 ...      3321
Shell pairs after pre-screening             ...      3111
Total number of primitive shell pairs       ...     11313
Primitive shell pairs kept                  ...      7945
          la=0 lb=0:    878 shell pairs
          la=1 lb=0:   1096 shell pairs
          la=1 lb=1:    362 shell pairs
          la=2 lb=0:    439 shell pairs
          la=2 lb=1:    276 shell pairs
          la=2 lb=2:     60 shell pairs

Calculating one electron integrals          ... done (  0.0 sec)
Calculating RI/J V-Matrix + Cholesky decomp.... done (  0.5 sec)
Calculating Nuclear repulsion               ... done (  0.0 sec) ENN=    393.314453932354 Eh

SHARK setup successfully completed in   1.4 seconds

Maximum memory used throughout the entire GTOINT-calculation: 11.8 MB


           ************************************************************
           *        Program running with 4 parallel MPI-processes     *
           *              working on a common directory               *
           ************************************************************
-------------------------------------------------------------------------------
                                 ORCA SCF
-------------------------------------------------------------------------------

------------
SCF SETTINGS
------------
Hamiltonian:
 Density Functional     Method          .... DFT(GTOs)
 Exchange Functional    Exchange        .... PBE
   PBE kappa parameter   XKappa         ....  0.804000
   PBE mue parameter    XMuePBE         ....  0.219520
 Correlation Functional Correlation     .... PBE
   PBE beta parameter  CBetaPBE         ....  0.066725
 LDA part of GGA corr.  LDAOpt          .... PW91-LDA
 Gradients option       PostSCFGGA      .... off
 Hybrid DFT is turned on
   Fraction HF Exchange ScalHFX         ....  0.250000
   Scaling of DF-GGA-X  ScalDFX         ....  0.750000
   Scaling of DF-GGA-C  ScalDFC         ....  1.000000
   Scaling of DF-LDA-C  ScalLDAC        ....  1.000000
   Perturbative correction              ....  0.000000
   Density functional embedding theory  .... OFF
   NL short-range parameter             ....  6.900000
 RI-approximation to the Coulomb term is turned on
   Number of AuxJ basis functions       .... 518
   RIJ-COSX (HFX calculated with COS-X)).... on


General Settings:
 Integral files         IntName         .... Ar-B-diOH-freq
 Hartree-Fock type      HFTyp           .... RHF
 Total Charge           Charge          ....    0
 Multiplicity           Mult            ....    1
 Number of Electrons    NEL             ....   64
 Basis Dimension        Dim             ....  179
 Nuclear Repulsion      ENuc            ....    393.3144539324 Eh

Convergence Acceleration:
 DIIS                   CNVDIIS         .... on
   Start iteration      DIISMaxIt       ....    12
   Startup error        DIISStart       ....  0.200000
   # of expansion vecs  DIISMaxEq       ....     5
   Bias factor          DIISBfac        ....   1.050
   Max. coefficient     DIISMaxC        ....  10.000
 Trust-Rad. Augm. Hess. CNVTRAH         .... auto
   Auto Start mean grad. ratio tolernc. ....  1.125000
   Auto Start start iteration           ....    20
   Auto Start num. interpolation iter.  ....    10
   Max. Number of Micro iterations      ....    16
   Max. Number of Macro iterations      .... Maxiter - #DIIS iter
   Number of Davidson start vectors     ....     2
   Converg. threshold I  (grad. norm)   ....   1.000e-05
   Converg. threshold II (energy diff.) ....   1.000e-08
   Grad. Scal. Fac. for Micro threshold ....   0.100
   Minimum threshold for Micro iter.    ....   0.010
   NR start threshold (gradient norm)   ....   0.001
   Initial trust radius                 ....   0.400
   Minimum AH scaling param. (alpha)    ....   1.000
   Maximum AH scaling param. (alpha)    .... 1000.000
   Orbital update algorithm             .... Taylor
   White noise on init. David. guess    .... on
   Maximum white noise                  ....   0.010
   Quad. conv. algorithm                .... NR
 SOSCF                  CNVSOSCF        .... on
   Start iteration      SOSCFMaxIt      ....   150
   Startup grad/error   SOSCFStart      ....  0.003300
 Level Shifting         CNVShift        .... on
   Level shift para.    LevelShift      ....    0.2500
   Turn off err/grad.   ShiftErr        ....    0.0010
 Zerner damping         CNVZerner       .... off
 Static damping         CNVDamp         .... on
   Fraction old density DampFac         ....    0.7000
   Max. Damping (<1)    DampMax         ....    0.9800
   Min. Damping (>=0)   DampMin         ....    0.0000
   Turn off err/grad.   DampErr         ....    0.1000
 Fernandez-Rico         CNVRico         .... off

SCF Procedure:
 Maximum # iterations   MaxIter         ....   125
 SCF integral mode      SCFMode         .... Direct
   Integral package                     .... SHARK and LIBINT hybrid scheme
 Reset frequency        DirectResetFreq ....    20
 Integral Threshold     Thresh          ....  2.500e-11 Eh
 Primitive CutOff       TCut            ....  2.500e-12 Eh

Convergence Tolerance:
 Convergence Check Mode ConvCheckMode   .... Total+1el-Energy
 Convergence forced     ConvForced      .... 0
 Energy Change          TolE            ....  1.000e-08 Eh
 1-El. energy change                    ....  1.000e-05 Eh
 Orbital Gradient       TolG            ....  1.000e-05
 Orbital Rotation angle TolX            ....  1.000e-05
 DIIS Error             TolErr          ....  5.000e-07


Diagonalization of the overlap matrix:
Smallest eigenvalue                        ... 2.822e-04
Time for diagonalization                   ...    0.005 sec
Threshold for overlap eigenvalues          ... 1.000e-08
Number of eigenvalues below threshold      ... 0
Time for construction of square roots      ...    0.075 sec
Total time needed                          ...    0.080 sec

Time for model grid setup =    0.238 sec

------------------------------
INITIAL GUESS: MODEL POTENTIAL
------------------------------
Loading Hartree-Fock densities                     ... done
Calculating cut-offs                               ... done
Initializing the effective Hamiltonian             ... done
Setting up the integral package (SHARK)            ... done
Starting the Coulomb interaction                   ... done (   0.5 sec)
Reading the grid                                   ... done
Mapping shells                                     ... done
Starting the XC term evaluation                    ... done (   0.0 sec)
  promolecular density results
     # of electrons  =     63.997647052
     EX              =    -52.861471008
     EC              =     -2.106740866
     EX+EC           =    -54.968211875
Transforming the Hamiltonian                       ... done (   0.0 sec)
Diagonalizing the Hamiltonian                      ... done (   0.0 sec)
Back transforming the eigenvectors                 ... done (   0.0 sec)
Now organizing SCF variables                       ... done
                      ------------------
                      INITIAL GUESS DONE (   0.8 sec)
                      ------------------
-------------------
DFT GRID GENERATION
-------------------

General Integration Accuracy     IntAcc      ... 4.388
Radial Grid Type                 RadialGrid  ... OptM3 with GC (2021)
Angular Grid (max. ang.)         AngularGrid ... 4 (Lebedev-302)
Angular grid pruning method      GridPruning ... 4 (adaptive)
Weight generation scheme         WeightScheme... Becke
Basis function cutoff            BFCut       ... 1.0000e-11
Integration weight cutoff        WCut        ... 1.0000e-14
Angular grids for H and He will be reduced by one unit
Partially contracted basis set               ... off
Rotationally invariant grid construction     ... off

Total number of grid points                  ...    77293
Total number of batches                      ...     1215
Average number of points per batch           ...       63
Average number of grid points per atom       ...     4831
Time for grid setup =    0.582 sec

--------------------
COSX GRID GENERATION
--------------------

GRIDX 1
-------
General Integration Accuracy     IntAcc      ... 3.816
Radial Grid Type                 RadialGrid  ... OptM3 with GC (2021)
Angular Grid (max. ang.)         AngularGrid ... 1 (Lebedev-50)
Angular grid pruning method      GridPruning ... 4 (adaptive)
Weight generation scheme         WeightScheme... Becke
Basis function cutoff            BFCut       ... 1.0000e-11
Integration weight cutoff        WCut        ... 1.0000e-14
Angular grids for H and He will be reduced by one unit
Partially contracted basis set               ... on
Rotationally invariant grid construction     ... off

Total number of grid points                  ...     9897
Total number of batches                      ...      161
Average number of points per batch           ...       61
Average number of grid points per atom       ...      619
UseSFitting                                  ... on

GRIDX 2
-------
General Integration Accuracy     IntAcc      ... 4.020
Radial Grid Type                 RadialGrid  ... OptM3 with GC (2021)
Angular Grid (max. ang.)         AngularGrid ... 2 (Lebedev-110)
Angular grid pruning method      GridPruning ... 4 (adaptive)
Weight generation scheme         WeightScheme... Becke
Basis function cutoff            BFCut       ... 1.0000e-11
Integration weight cutoff        WCut        ... 1.0000e-14
Angular grids for H and He will be reduced by one unit
Partially contracted basis set               ... on
Rotationally invariant grid construction     ... off

Total number of grid points                  ...    22238
Total number of batches                      ...      358
Average number of points per batch           ...       62
Average number of grid points per atom       ...     1390
UseSFitting                                  ... on

GRIDX 3
-------
General Integration Accuracy     IntAcc      ... 4.338
Radial Grid Type                 RadialGrid  ... OptM3 with GC (2021)
Angular Grid (max. ang.)         AngularGrid ... 3 (Lebedev-194)
Angular grid pruning method      GridPruning ... 4 (adaptive)
Weight generation scheme         WeightScheme... Becke
Basis function cutoff            BFCut       ... 1.0000e-11
Integration weight cutoff        WCut        ... 1.0000e-14
Angular grids for H and He will be reduced by one unit
Partially contracted basis set               ... on
Rotationally invariant grid construction     ... off

Total number of grid points                  ...    48633
Total number of batches                      ...      769
Average number of points per batch           ...       63
Average number of grid points per atom       ...     3040
UseSFitting                                  ... on

Time for X-Grid setup             =    1.688 sec


--------------------
CPCM SOLVATION MODEL
--------------------
CPCM parameters:
  Epsilon                                         ...       2.2706
  Refrac                                          ...       1.5011
  Rsolv                                           ...       1.3000
  Surface type                                    ... GAUSSIAN VDW
  Epsilon function type                           ...         CPCM
Solvent:                                     ... BENZENE
SMD-CDS solvent descriptors:
  Soln                                       ...    1.5011
  Soln25                                     ...    1.4972
  Sola                                       ...    0.0000
  Solb                                       ...    0.1400
  Solg                                       ...   40.6200
  Solc                                       ...    1.0000
  Solh                                       ...    0.0000
Radii:
 Radius for H  used is    2.2677 Bohr (=   1.2000 Ang.)
 Radius for C  used is    3.4960 Bohr (=   1.8500 Ang.)
 Radius for B  used is    3.6283 Bohr (=   1.9200 Ang.)
 Radius for O  used is    4.3350 Bohr (=   2.2940 Ang.)
Calculating surface                               ...        done! (  0.0s)
GEPOL surface points                              ...          849
GEPOL Volume                                      ...    1114.4814
GEPOL Surface-area                                ...     623.2113
Calculating surface distance matrix               ...        done! (  0.0s)
Performing Cholesky decomposition & store         ...        done! (  0.1s)
Overall time for CPCM initialization              ...                 0.1s
--------------
SCF ITERATIONS
--------------
ITER       Energy         Delta-E        Max-DP      RMS-DP      [F,P]     Damp
               ***  Starting incremental Fock matrix formation  ***
  0   -407.2919154850   0.000000000000 0.07325065  0.00229850  0.2490441 0.7000
  1   -407.3986628838  -0.106747398820 0.04236900  0.00157866  0.1090214 0.7000
                               ***Turning on DIIS***
  2   -407.4424078289  -0.043744945079 0.06727044  0.00273592  0.0352397 0.0000
  3   -407.5110559072  -0.068648078273 0.03048220  0.00095445  0.0576856 0.0000
  4   -407.5252140668  -0.014158159584 0.01152077  0.00030051  0.0084744 0.0000
                      *** Initiating the SOSCF procedure ***
                           *** Shutting down DIIS ***
                      *** Re-Reading the Fockian *** 
                      *** Removing any level shift *** 
ITER      Energy       Delta-E        Grad      Rot      Max-DP    RMS-DP
  5   -407.52598364  -0.0007695735  0.000651  0.000651  0.001615  0.000079
               *** Restarting incremental Fock matrix formation ***
  6   -407.52603119  -0.0000475516  0.000227  0.000595  0.001386  0.000055
  7   -407.52603309  -0.0000019030  0.000207  0.000485  0.000765  0.000016
  8   -407.52603482  -0.0000017245  0.000084  0.000234  0.000219  0.000009
  9   -407.52603483  -0.0000000128  0.000068  0.000101  0.000126  0.000003
 10   -407.52603496  -0.0000001324  0.000008  0.000011  0.000029  0.000001
 11   -407.52603496   0.0000000022  0.000006  0.000007  0.000010  0.000000
                  ***Gradient check signals convergence***
              ***Rediagonalizing the Fockian in SOSCF/NRSCF***

               *****************************************************
               *                     SUCCESS                       *
               *           SCF CONVERGED AFTER  12 CYCLES          *
               *****************************************************

Old exchange energy                            =    -13.476890975 Eh
New exchange energy                            =    -13.476907156 Eh
Exchange energy change after final integration =     -0.000016181 Eh
Total energy after final integration           =   -407.526051141 Eh
Final COS-X integration done in                =     2.039 sec

SMD CDS free energy correction energy :                -3.61647     Kcal/mol
Total Energy after SMD CDS correction =              -407.531814350 Eh

----------------
TOTAL SCF ENERGY
----------------

Total Energy       :         -407.53181435 Eh          -11089.50445 eV

Components:
Nuclear Repulsion  :          393.31445393 Eh           10702.63040 eV
Electronic Energy  :         -800.84626828 Eh          -21792.13485 eV
One Electron Energy:        -1332.93067916 Eh          -36270.88776 eV
Two Electron Energy:          532.08441088 Eh           14478.75291 eV
Max COSX asymmetry :            0.00000323 Eh               0.00009 eV
CPCM Dielectric    :           -0.00738570 Eh              -0.20098 eV
SMD CDS (Gcds)     :           -0.00576321 Eh              -0.15682 eV

Virial components:
Potential Energy   :         -811.20800446 Eh          -22074.09203 eV
Kinetic Energy     :          403.67619011 Eh           10984.58758 eV
Virial Ratio       :            2.00955128


DFT components:
N(Alpha)           :       32.000059842900 electrons
N(Beta)            :       32.000059842900 electrons
N(Total)           :       64.000119685800 electrons
E(X)               :      -40.323616363174 Eh       
E(C)               :       -2.129525835009 Eh       
E(XC)              :      -42.453142198183 Eh       
DFET-embed. en.    :        0.000000000000 Eh       
CPCM Solvation Model Properties:
Surface-charge          :           -0.02508827
Charge-correction       :            0.00012659 Eh               0.00344 eV
Free-energy (cav+disp)  :           -0.00576321 Eh              -0.15682 eV

---------------
SCF CONVERGENCE
---------------

  Last Energy change         ...    2.2383e-09  Tolerance :   1.0000e-08
  Last MAX-Density change    ...    4.4409e-15  Tolerance :   1.0000e-07
  Last RMS-Density change    ...    4.5200e-17  Tolerance :   5.0000e-09
  Last Orbital Gradient      ...    1.2510e-06  Tolerance :   1.0000e-05
  Last Orbital Rotation      ...    2.2490e-06  Tolerance :   1.0000e-05

             **** THE GBW FILE WAS UPDATED (Ar-B-diOH-freq.gbw) ****
             **** DENSITY Ar-B-diOH-freq.scfp WAS UPDATED ****
             **** ENERGY FILE WAS UPDATED (Ar-B-diOH-freq.en.tmp) ****
             **** THE GBW FILE WAS UPDATED (Ar-B-diOH-freq.gbw) ****
             **** DENSITY Ar-B-diOH-freq.scfp WAS UPDATED ****
----------------
ORBITAL ENERGIES
----------------

  NO   OCC          E(Eh)            E(eV) 
   0   2.0000     -19.224170      -523.1163 
   1   2.0000     -19.224045      -523.1129 
   2   2.0000     -10.248754      -278.8828 
   3   2.0000     -10.248727      -278.8820 
   4   2.0000     -10.247248      -278.8418 
   5   2.0000     -10.244934      -278.7788 
   6   2.0000     -10.244908      -278.7781 
   7   2.0000     -10.232495      -278.4403 
   8   2.0000      -6.825021      -185.7183 
   9   2.0000      -1.053285       -28.6613 
  10   2.0000      -1.023792       -27.8588 
  11   2.0000      -0.879485       -23.9320 
  12   2.0000      -0.767933       -20.8965 
  13   2.0000      -0.767044       -20.8723 
  14   2.0000      -0.623946       -16.9784 
  15   2.0000      -0.622249       -16.9323 
  16   2.0000      -0.607300       -16.5255 
  17   2.0000      -0.545423       -14.8417 
  18   2.0000      -0.510968       -13.9041 
  19   2.0000      -0.475761       -12.9461 
  20   2.0000      -0.474119       -12.9014 
  21   2.0000      -0.453052       -12.3282 
  22   2.0000      -0.438964       -11.9448 
  23   2.0000      -0.417879       -11.3711 
  24   2.0000      -0.398306       -10.8384 
  25   2.0000      -0.387038       -10.5318 
  26   2.0000      -0.386215       -10.5094 
  27   2.0000      -0.358522        -9.7559 
  28   2.0000      -0.340188        -9.2570 
  29   2.0000      -0.327430        -8.9098 
  30   2.0000      -0.275793        -7.5047 
  31   2.0000      -0.275756        -7.5037 
  32   0.0000      -0.032827        -0.8933 
  33   0.0000      -0.013658        -0.3717 
  34   0.0000       0.040833         1.1111 
  35   0.0000       0.051795         1.4094 
  36   0.0000       0.084172         2.2904 
  37   0.0000       0.084935         2.3112 
  38   0.0000       0.110988         3.0201 
  39   0.0000       0.114134         3.1058 
  40   0.0000       0.122024         3.3204 
  41   0.0000       0.123810         3.3690 
  42   0.0000       0.142344         3.8734 
  43   0.0000       0.142390         3.8746 
  44   0.0000       0.161154         4.3852 
  45   0.0000       0.166094         4.5197 
  46   0.0000       0.192445         5.2367 
  47   0.0000       0.204288         5.5590 
  48   0.0000       0.206461         5.6181 
  49   0.0000       0.242141         6.5890 
  50   0.0000       0.245737         6.6868 
  51   0.0000       0.278006         7.5649 
  52   0.0000       0.292459         7.9582 
  53   0.0000       0.304989         8.2992 
  54   0.0000       0.310667         8.4537 
  55   0.0000       0.322916         8.7870 
  56   0.0000       0.336584         9.1589 
  57   0.0000       0.344256         9.3677 
  58   0.0000       0.379051        10.3145 
  59   0.0000       0.385636        10.4937 
  60   0.0000       0.409612        11.1461 
  61   0.0000       0.415166        11.2973 
  62   0.0000       0.447984        12.1903 
  63   0.0000       0.459206        12.4956 
  64   0.0000       0.468535        12.7495 
  65   0.0000       0.468622        12.7519 
  66   0.0000       0.486061        13.2264 
  67   0.0000       0.492409        13.3991 
  68   0.0000       0.499255        13.5854 
  69   0.0000       0.500488        13.6190 
  70   0.0000       0.524251        14.2656 
  71   0.0000       0.556491        15.1429 
  72   0.0000       0.562541        15.3075 
  73   0.0000       0.565304        15.3827 
  74   0.0000       0.585901        15.9432 
  75   0.0000       0.598028        16.2732 
  76   0.0000       0.599651        16.3173 
  77   0.0000       0.619240        16.8504 
  78   0.0000       0.622244        16.9321 
  79   0.0000       0.660839        17.9823 
  80   0.0000       0.667151        18.1541 
  81   0.0000       0.670058        18.2332 
  82   0.0000       0.674860        18.3639 
  83   0.0000       0.687473        18.7071 
  84   0.0000       0.695164        18.9164 
  85   0.0000       0.716022        19.4840 
  86   0.0000       0.722308        19.6550 
  87   0.0000       0.739045        20.1104 
  88   0.0000       0.755281        20.5523 
  89   0.0000       0.773658        21.0523 
  90   0.0000       0.783251        21.3134 
  91   0.0000       0.794022        21.6064 
  92   0.0000       0.816210        22.2102 
  93   0.0000       0.853164        23.2158 
  94   0.0000       0.864479        23.5237 
  95   0.0000       0.913693        24.8629 
  96   0.0000       0.931258        25.3408 
  97   0.0000       0.940300        25.5869 
  98   0.0000       0.976866        26.5819 
  99   0.0000       1.055941        28.7336 
 100   0.0000       1.077374        29.3168 
 101   0.0000       1.130578        30.7646 
 102   0.0000       1.136045        30.9133 
 103   0.0000       1.187501        32.3136 
 104   0.0000       1.204293        32.7705 
 105   0.0000       1.245727        33.8979 
 106   0.0000       1.253772        34.1169 
 107   0.0000       1.271373        34.5958 
 108   0.0000       1.280675        34.8489 
 109   0.0000       1.295420        35.2502 
 110   0.0000       1.304409        35.4948 
 111   0.0000       1.324835        36.0506 
 112   0.0000       1.365793        37.1651 
 113   0.0000       1.410782        38.3893 
 114   0.0000       1.418763        38.6065 
 115   0.0000       1.423363        38.7317 
 116   0.0000       1.485733        40.4288 
 117   0.0000       1.523441        41.4549 
 118   0.0000       1.584960        43.1290 
 119   0.0000       1.610898        43.8348 
 120   0.0000       1.616563        43.9889 
 121   0.0000       1.679339        45.6971 
 122   0.0000       1.684238        45.8304 
 123   0.0000       1.716547        46.7096 
 124   0.0000       1.728870        47.0449 
 125   0.0000       1.746080        47.5132 
 126   0.0000       1.758977        47.8642 
 127   0.0000       1.762890        47.9707 
 128   0.0000       1.763383        47.9841 
 129   0.0000       1.773882        48.2698 
 130   0.0000       1.813787        49.3557 
 131   0.0000       1.821025        49.5526 
 132   0.0000       1.867334        50.8128 
 133   0.0000       1.868631        50.8480 
 134   0.0000       1.903706        51.8025 
 135   0.0000       1.921531        52.2875 
 136   0.0000       1.945502        52.9398 
 137   0.0000       1.970942        53.6321 
 138   0.0000       1.987047        54.0703 
 139   0.0000       1.997845        54.3641 
 140   0.0000       2.009095        54.6703 
 141   0.0000       2.046910        55.6992 
 142   0.0000       2.073184        56.4142 
 143   0.0000       2.098639        57.1069 
 144   0.0000       2.122094        57.7451 
 145   0.0000       2.164536        58.9000 
 146   0.0000       2.181006        59.3482 
 147   0.0000       2.271709        61.8164 
 148   0.0000       2.303526        62.6821 
 149   0.0000       2.307594        62.7928 
 150   0.0000       2.310969        62.8847 
 151   0.0000       2.347595        63.8813 
 152   0.0000       2.347951        63.8910 
 153   0.0000       2.366264        64.3893 
 154   0.0000       2.383454        64.8571 
 155   0.0000       2.451098        66.6978 
 156   0.0000       2.546677        69.2986 
 157   0.0000       2.621655        71.3389 
 158   0.0000       2.622226        71.3544 
 159   0.0000       2.651459        72.1499 
 160   0.0000       2.741322        74.5952 
 161   0.0000       2.749340        74.8134 
 162   0.0000       2.825136        76.8759 
 163   0.0000       2.879645        78.3591 
 164   0.0000       2.880851        78.3919 
 165   0.0000       2.890973        78.6674 
 166   0.0000       2.960881        80.5697 
 167   0.0000       3.015317        82.0509 
 168   0.0000       3.033222        82.5382 
 169   0.0000       3.056398        83.1688 
 170   0.0000       3.077013        83.7298 
 171   0.0000       3.135498        85.3212 
 172   0.0000       3.230049        87.8941 
 173   0.0000       3.295460        89.6740 
 174   0.0000       3.413641        92.8899 
 175   0.0000       3.457499        94.0833 
 176   0.0000       3.627121        98.6990 
 177   0.0000       3.877653       105.5163 
 178   0.0000       3.899582       106.1130 

                    ********************************
                    * MULLIKEN POPULATION ANALYSIS *
                    ********************************

-----------------------
MULLIKEN ATOMIC CHARGES
-----------------------
   0 H :    0.037226
   1 C :   -0.020741
   2 C :   -0.026858
   3 H :    0.041867
   4 C :   -0.020832
   5 H :    0.037290
   6 C :   -0.081860
   7 H :    0.040945
   8 C :   -0.032935
   9 C :   -0.082118
  10 H :    0.041061
  11 B :    0.618189
  12 O :   -0.434652
  13 O :   -0.434327
  14 H :    0.158790
  15 H :    0.158954
Sum of atomic charges:   -0.0000000

--------------------------------
MULLIKEN REDUCED ORBITAL CHARGES
--------------------------------
  0 H s       :     0.939204  s :     0.939204
      pz      :     0.012988  p :     0.023571
      px      :     0.006005
      py      :     0.004578
  1 C s       :     3.171063  s :     3.171063
      pz      :     0.888861  p :     2.814897
      px      :     0.943403
      py      :     0.982633
      dz2     :     0.008687  d :     0.034781
      dxz     :     0.012150
      dyz     :     0.003432
      dx2y2   :     0.005022
      dxy     :     0.005490
  2 C s       :     3.175149  s :     3.175149
      pz      :     0.959704  p :     2.816640
      px      :     0.890839
      py      :     0.966098
      dz2     :     0.010949  d :     0.035069
      dxz     :     0.010567
      dyz     :     0.006599
      dx2y2   :     0.004385
      dxy     :     0.002568
  3 H s       :     0.934604  s :     0.934604
      pz      :     0.003214  p :     0.023530
      px      :     0.015829
      py      :     0.004486
  4 C s       :     3.171143  s :     3.171143
      pz      :     0.893001  p :     2.814903
      px      :     0.939616
      py      :     0.982286
      dz2     :     0.008594  d :     0.034786
      dxz     :     0.012394
      dyz     :     0.003606
      dx2y2   :     0.004901
      dxy     :     0.005291
  5 H s       :     0.939141  s :     0.939141
      pz      :     0.012365  p :     0.023569
      px      :     0.006686
      py      :     0.004519
  6 C s       :     3.209210  s :     3.209210
      pz      :     0.915819  p :     2.836888
      px      :     0.950214
      py      :     0.970855
      dz2     :     0.009324  d :     0.035762
      dxz     :     0.012145
      dyz     :     0.003145
      dx2y2   :     0.005301
      dxy     :     0.005846
  7 H s       :     0.935562  s :     0.935562
      pz      :     0.013033  p :     0.023492
      px      :     0.005711
      py      :     0.004748
  8 C s       :     3.135145  s :     3.135145
      pz      :     0.913110  p :     2.864361
      px      :     0.960852
      py      :     0.990399
      dz2     :     0.009558  d :     0.033429
      dxz     :     0.011214
      dyz     :     0.006381
      dx2y2   :     0.003618
      dxy     :     0.002657
  9 C s       :     3.209095  s :     3.209095
      pz      :     0.920036  p :     2.837251
      px      :     0.944736
      py      :     0.972479
      dz2     :     0.009058  d :     0.035772
      dxz     :     0.012636
      dyz     :     0.003317
      dx2y2   :     0.005153
      dxy     :     0.005607
 10 H s       :     0.935447  s :     0.935447
      pz      :     0.012464  p :     0.023492
      px      :     0.006330
      py      :     0.004698
 11 B s       :     2.526187  s :     2.526187
      pz      :     0.566234  p :     1.659256
      px      :     0.714645
      py      :     0.378378
      dz2     :     0.056057  d :     0.196368
      dxz     :     0.057979
      dyz     :     0.035908
      dx2y2   :     0.022843
      dxy     :     0.023582
 12 O s       :     3.794076  s :     3.794076
      pz      :     1.310189  p :     4.633527
      px      :     1.614772
      py      :     1.708567
      dz2     :    -0.004061  d :     0.007049
      dxz     :     0.001814
      dyz     :    -0.001680
      dx2y2   :     0.004897
      dxy     :     0.006080
 13 O s       :     3.793821  s :     3.793821
      pz      :     1.304531  p :     4.633394
      px      :     1.611210
      py      :     1.717652
      dz2     :    -0.005721  d :     0.007112
      dxz     :     0.001668
      dyz     :    -0.000255
      dx2y2   :     0.005231
      dxy     :     0.006189
 14 H s       :     0.771854  s :     0.771854
      pz      :     0.029308  p :     0.069357
      px      :     0.021861
      py      :     0.018188
 15 H s       :     0.771706  s :     0.771706
      pz      :     0.028356  p :     0.069340
      px      :     0.021784
      py      :     0.019200


                     *******************************
                     * LOEWDIN POPULATION ANALYSIS *
                     *******************************

----------------------
LOEWDIN ATOMIC CHARGES
----------------------
   0 H :    0.041081
   1 C :   -0.033548
   2 C :   -0.023481
   3 H :    0.041758
   4 C :   -0.033539
   5 H :    0.041097
   6 C :    0.001656
   7 H :    0.050773
   8 C :    0.033585
   9 C :    0.001814
  10 H :    0.050898
  11 B :    0.247719
  12 O :   -0.380873
  13 O :   -0.381283
  14 H :    0.171118
  15 H :    0.171225

-------------------------------
LOEWDIN REDUCED ORBITAL CHARGES
-------------------------------
  0 H s       :     0.890201  s :     0.890201
      pz      :     0.036420  p :     0.068718
      px      :     0.018287
      py      :     0.014010
  1 C s       :     2.863497  s :     2.863497
      pz      :     1.051437  p :     3.079644
      px      :     1.063052
      py      :     0.965155
      dz2     :     0.024289  d :     0.090408
      dxz     :     0.034394
      dyz     :     0.006324
      dx2y2   :     0.013998
      dxy     :     0.011403
  2 C s       :     2.865810  s :     2.865810
      pz      :     1.070622  p :     3.067262
      px      :     1.046844
      py      :     0.949795
      dz2     :     0.030957  d :     0.090410
      dxz     :     0.030531
      dyz     :     0.013881
      dx2y2   :     0.010796
      dxy     :     0.004246
  3 H s       :     0.889664  s :     0.889664
      pz      :     0.011123  p :     0.068578
      px      :     0.043792
      py      :     0.013664
  4 C s       :     2.863483  s :     2.863483
      pz      :     1.052552  p :     3.079638
      px      :     1.062261
      py      :     0.964825
      dz2     :     0.024174  d :     0.090417
      dxz     :     0.034949
      dyz     :     0.006748
      dx2y2   :     0.013627
      dxy     :     0.010919
  5 H s       :     0.890187  s :     0.890187
      pz      :     0.034807  p :     0.068716
      px      :     0.020060
      py      :     0.013849
  6 C s       :     2.853825  s :     2.853825
      pz      :     1.046342  p :     3.052719
      px      :     1.052386
      py      :     0.953991
      dz2     :     0.025281  d :     0.091800
      dxz     :     0.034245
      dyz     :     0.005977
      dx2y2   :     0.014421
      dxy     :     0.011875
  7 H s       :     0.880636  s :     0.880636
      pz      :     0.036554  p :     0.068591
      px      :     0.017952
      py      :     0.014084
  8 C s       :     2.833822  s :     2.833822
      pz      :     1.051756  p :     3.046282
      px      :     1.055316
      py      :     0.939210
      dz2     :     0.027481  d :     0.086311
      dxz     :     0.032690
      dyz     :     0.013324
      dx2y2   :     0.007998
      dxy     :     0.004818
  9 C s       :     2.853732  s :     2.853732
      pz      :     1.047566  p :     3.052631
      px      :     1.050689
      py      :     0.954377
      dz2     :     0.024780  d :     0.091823
      dxz     :     0.035341
      dyz     :     0.006383
      dx2y2   :     0.013978
      dxy     :     0.011342
 10 H s       :     0.880510  s :     0.880510
      pz      :     0.034970  p :     0.068592
      px      :     0.019680
      py      :     0.013941
 11 B s       :     2.454805  s :     2.454805
      pz      :     0.644148  p :     1.827231
      px      :     0.766888
      py      :     0.416195
      dz2     :     0.127736  d :     0.470245
      dxz     :     0.142986
      dyz     :     0.082890
      dx2y2   :     0.063933
      dxy     :     0.052700
 12 O s       :     3.413002  s :     3.413002
      pz      :     1.420483  p :     4.739616
      px      :     1.664154
      py      :     1.654979
      dz2     :     0.059827  d :     0.228256
      dxz     :     0.078123
      dyz     :     0.041168
      dx2y2   :     0.030255
      dxy     :     0.018882
 13 O s       :     3.413035  s :     3.413035
      pz      :     1.412517  p :     4.739704
      px      :     1.662387
      py      :     1.664800
      dz2     :     0.061638  d :     0.228544
      dxz     :     0.074655
      dyz     :     0.040048
      dx2y2   :     0.030392
      dxy     :     0.021811
 14 H s       :     0.642387  s :     0.642387
      pz      :     0.072828  p :     0.186495
      px      :     0.063415
      py      :     0.050252
 15 H s       :     0.642288  s :     0.642288
      pz      :     0.070020  p :     0.186486
      px      :     0.063203
      py      :     0.053263


                      *****************************
                      * MAYER POPULATION ANALYSIS *
                      *****************************

  NA   - Mulliken gross atomic population
  ZA   - Total nuclear charge
  QA   - Mulliken gross atomic charge
  VA   - Mayer's total valence
  BVA  - Mayer's bonded valence
  FA   - Mayer's free valence

  ATOM       NA         ZA         QA         VA         BVA        FA
  0 H      0.9628     1.0000     0.0372     0.9812     0.9812    -0.0000
  1 C      6.0207     6.0000    -0.0207     3.8369     3.8369     0.0000
  2 C      6.0269     6.0000    -0.0269     3.8402     3.8402    -0.0000
  3 H      0.9581     1.0000     0.0419     0.9807     0.9807    -0.0000
  4 C      6.0208     6.0000    -0.0208     3.8368     3.8368    -0.0000
  5 H      0.9627     1.0000     0.0373     0.9812     0.9812    -0.0000
  6 C      6.0819     6.0000    -0.0819     3.8763     3.8763    -0.0000
  7 H      0.9591     1.0000     0.0409     0.9774     0.9774    -0.0000
  8 C      6.0329     6.0000    -0.0329     3.7319     3.7319    -0.0000
  9 C      6.0821     6.0000    -0.0821     3.8764     3.8764    -0.0000
 10 H      0.9589     1.0000     0.0411     0.9774     0.9774     0.0000
 11 B      4.3818     5.0000     0.6182     3.1481     3.1481     0.0000
 12 O      8.4347     8.0000    -0.4347     2.2615     2.2615     0.0000
 13 O      8.4343     8.0000    -0.4343     2.2624     2.2624     0.0000
 14 H      0.8412     1.0000     0.1588     0.9887     0.9887    -0.0000
 15 H      0.8410     1.0000     0.1590     0.9885     0.9885    -0.0000

  Mayer bond orders larger than 0.100000
B(  0-H ,  1-C ) :   0.9879 B(  1-C ,  2-C ) :   1.3834 B(  1-C ,  9-C ) :   1.3958 
B(  2-C ,  3-H ) :   0.9869 B(  2-C ,  4-C ) :   1.3834 B(  4-C ,  5-H ) :   0.9879 
B(  4-C ,  6-C ) :   1.3957 B(  6-C ,  7-H ) :   0.9812 B(  6-C ,  8-C ) :   1.3486 
B(  8-C ,  9-C ) :   1.3485 B(  8-C , 11-B ) :   0.8560 B(  9-C , 10-H ) :   0.9811 
B( 11-B , 12-O ) :   1.1076 B( 11-B , 13-O ) :   1.1082 B( 12-O , 15-H ) :   0.9804 
B( 13-O , 14-H ) :   0.9803 

-------
TIMINGS
-------

Total SCF time: 0 days 0 hours 0 min 30 sec 

Total time                  ....      30.434 sec
Sum of individual times     ....      27.385 sec  ( 90.0%)

Fock matrix formation       ....      23.003 sec  ( 75.6%)
  Split-RI-J                ....       1.464 sec  (  6.4% of F)
  Chain of spheres X        ....      10.692 sec  ( 46.5% of F)
  XC integration            ....       4.732 sec  ( 20.6% of F)
    Basis function eval.    ....       0.637 sec  ( 13.5% of XC)
    Density eval.           ....       0.971 sec  ( 20.5% of XC)
    XC-Functional eval.     ....       0.575 sec  ( 12.1% of XC)
    XC-Potential eval.      ....       0.538 sec  ( 11.4% of XC)
Diagonalization             ....       0.519 sec  (  1.7%)
Density matrix formation    ....       0.096 sec  (  0.3%)
Population analysis         ....       0.242 sec  (  0.8%)
Initial guess               ....       0.566 sec  (  1.9%)
Orbital Transformation      ....       0.000 sec  (  0.0%)
Orbital Orthonormalization  ....       0.000 sec  (  0.0%)
DIIS solution               ....       0.345 sec  (  1.1%)
SOSCF solution              ....       0.107 sec  (  0.4%)
Grid generation             ....       2.508 sec  (  8.2%)

Maximum memory used throughout the entire SCF-calculation: 54.4 MB


-------------------------------------------------------------------------------
                          DFT DISPERSION CORRECTION                            
                                                                               
                              DFTD3 V3.1  Rev 1                                
                          USING Becke-Johnson damping                          
-------------------------------------------------------------------------------
The PBE0 functional is recognized
Active option DFTDOPT                   ...         4   

molecular C6(AA) [au] = 2951.303749 


            DFT-D V3
 parameters
 s6 scaling factor         :     1.0000 
 a1 scaling factor         :     0.4145 
 s8 scaling factor         :     1.2177 
 a2 scaling factor         :     4.8593 
 ad hoc parameters k1-k3   :    16.0000     1.3333    -4.0000 

 Edisp/kcal,au: -8.714257555361  -0.013887051887 
 E6   /kcal   :  -5.398676679 
 E8   /kcal   :  -3.315580876 
 % E8         :  38.047772344 

-------------------------   ----------------
Dispersion correction           -0.013887052
-------------------------   ----------------


-------------------------   --------------------
FINAL SINGLE POINT ENERGY      -407.545701401517
-------------------------   --------------------



           ************************************************************
           *        Program running with 4 parallel MPI-processes     *
           *              working on a common directory               *
           ************************************************************
------------------------------------------------------------------------------
                         ORCA SCF GRADIENT CALCULATION
------------------------------------------------------------------------------

 ... reading COSX grid (gridx3)
Gradient of the Kohn-Sham DFT energy:
Kohn-Sham wavefunction type      ... RKS
Hartree-Fock exchange scaling    ...    0.250
Number of operators              ...    1
Number of atoms                  ...   16
Basis set dimensions             ...  179
Integral neglect threshold       ... 2.5e-11
Integral primitive cutoff        ... 2.5e-12
SHARK Integral package           ... ON

Nuc. rep. gradient       (SHARK) ... done (  0.0 sec)
HCore & Overlap gradient (SHARK) ... done (  0.0 sec)
RI-J gradient            (SHARK) ... done (  0.5 sec)
COSX-gradient                    ... done (  2.5 sec)
Exchange-correlation gradient    ... done
Dispersion correction            ... done

------------------
CARTESIAN GRADIENT
------------------

   1   H   :   -0.000001593    0.000003226   -0.000005884
   2   C   :   -0.000003410    0.000001141    0.000002183
   3   C   :   -0.000009974    0.000003891   -0.000012333
   4   H   :   -0.000002894    0.000002154   -0.000008060
   5   C   :   -0.000007237    0.000002141   -0.000006729
   6   H   :   -0.000005132    0.000002300   -0.000002077
   7   C   :   -0.000012995   -0.000008038   -0.000007438
   8   H   :   -0.000006419    0.000003449   -0.000000965
   9   C   :   -0.000047791    0.000010382   -0.000008986
  10   C   :   -0.000017596   -0.000006090    0.000001764
  11   H   :    0.000000677    0.000004578   -0.000001469
  12   B   :    0.000078453   -0.000012004   -0.000006751
  13   O   :   -0.000006244   -0.000037381   -0.000009712
  14   O   :   -0.000046930    0.000025074    0.000038221
  15   H   :    0.000022853   -0.000008871   -0.000017204
  16   H   :   -0.000006103    0.000024362    0.000004385

Difference to translation invariance:
           :   -0.0000723353    0.0000103159   -0.0000410549

Difference to rotation invariance:
           :   -0.0000623934    0.0001724755    0.0001122508

Norm of the cartesian gradient     ...    0.0001321020
RMS gradient                       ...    0.0000190673
MAX gradient                       ...    0.0000784526

-------
TIMINGS
-------

Total SCF gradient time            ...        5.040 sec

One electron gradient       ....       0.045 sec  (  0.9%)
RI-J Coulomb gradient       ....       0.473 sec  (  9.4%)
COSX gradient               ....       2.508 sec  ( 49.8%)
XC gradient                 ....       1.020 sec  ( 20.2%)
CPCM gradient               ....       0.130 sec  (  2.6%)
   A-Matrix (El+Nuc)        ....       0.031 sec  (  0.6%)
   Potential                ....       0.099 sec  (  2.0%)

Maximum memory used throughout the entire SCFGRAD-calculation: 42.3 MB

                            ***************************************
                            *     ORCA property calculations      *
                            ***************************************

                                    ---------------------
                                    Active property flags
                                    ---------------------
   (+) Dipole Moment


------------------------------------------------------------------------------
                       ORCA ELECTRIC PROPERTIES CALCULATION
------------------------------------------------------------------------------

Dipole Moment Calculation                       ... on
Quadrupole Moment Calculation                   ... off
Polarizability Calculation                      ... off
GBWName                                         ... Ar-B-diOH-freq.gbw
Electron density                                ... Ar-B-diOH-freq.scfp
The origin for moment calculation is the CENTER OF MASS  = ( 0.313028, -0.124161  1.860926)

-------------
DIPOLE MOMENT
-------------
                                X             Y             Z
Electronic contribution:     -4.55159      -0.30374      -0.13075
Nuclear contribution   :      5.97243       0.39856       0.16848
                        -----------------------------------------
Total Dipole Moment    :      1.42083       0.09482       0.03773
                        -----------------------------------------
Magnitude (a.u.)       :      1.42449
Magnitude (Debye)      :      3.62077



--------------------
Rotational spectrum 
--------------------
 
Rotational constants in cm-1:     0.121946     0.037196     0.028970 
Rotational constants in MHz :  3655.844895  1115.115802   868.488730 

 Dipole components along the rotational axes: 
x,y,z [a.u.] :     1.424489     0.002343     0.000032 
x,y,z [Debye]:     3.620764     0.005956     0.000080 

 

----------------------------------------------------------------------------
                           ORCA NUMERICAL FREQUENCIES
                              (4-process run)
----------------------------------------------------------------------------

Number of atoms                ... 16
Central differences            ... used
Number of displacements        ... 96
Numerical increment            ... 5.000e-03 bohr
IR-spectrum generation         ... on
Raman-spectrum generation      ... off
Surface Crossing Hessian       ... off

The output will be reduced. Please look at the following files:
SCF program output             ... >Ar-B-diOH-freq.lastscf
Integral program output        ... >Ar-B-diOH-freq.lastint
Gradient program output        ... >Ar-B-diOH-freq.lastgrad
Dipole moment program output   ... >Ar-B-diOH-freq.lastmom
AutoCI program output          ... >Ar-B-diOH-freq.lastautoci

	<< Calculating on displaced geometry   1 (of  96) >>
	<< Calculating on displaced geometry   3 (of  96) >>
	<< Calculating on displaced geometry   2 (of  96) >>
	<< Calculating on displaced geometry   4 (of  96) >>
	<< Calculating on displaced geometry   5 (of  96) >>
	<< Calculating on displaced geometry   6 (of  96) >>
	<< Calculating on displaced geometry   7 (of  96) >>
	<< Calculating on displaced geometry   8 (of  96) >>
	<< Calculating on displaced geometry   9 (of  96) >>
	<< Calculating on displaced geometry  10 (of  96) >>
	<< Calculating on displaced geometry  11 (of  96) >>
	<< Calculating on displaced geometry  12 (of  96) >>
	<< Calculating on displaced geometry  13 (of  96) >>
	<< Calculating on displaced geometry  14 (of  96) >>
	<< Calculating on displaced geometry  15 (of  96) >>
	<< Calculating on displaced geometry  16 (of  96) >>
	<< Calculating on displaced geometry  17 (of  96) >>
	<< Calculating on displaced geometry  18 (of  96) >>
	<< Calculating on displaced geometry  19 (of  96) >>
	<< Calculating on displaced geometry  20 (of  96) >>
	<< Calculating on displaced geometry  21 (of  96) >>
	<< Calculating on displaced geometry  22 (of  96) >>
	<< Calculating on displaced geometry  23 (of  96) >>
	<< Calculating on displaced geometry  24 (of  96) >>
	<< Calculating on displaced geometry  25 (of  96) >>
	<< Calculating on displaced geometry  26 (of  96) >>
	<< Calculating on displaced geometry  27 (of  96) >>
	<< Calculating on displaced geometry  28 (of  96) >>
	<< Calculating on displaced geometry  29 (of  96) >>
	<< Calculating on displaced geometry  30 (of  96) >>
	<< Calculating on displaced geometry  31 (of  96) >>
	<< Calculating on displaced geometry  32 (of  96) >>
	<< Calculating on displaced geometry  33 (of  96) >>
	<< Calculating on displaced geometry  34 (of  96) >>
	<< Calculating on displaced geometry  35 (of  96) >>
	<< Calculating on displaced geometry  36 (of  96) >>
	<< Calculating on displaced geometry  37 (of  96) >>
	<< Calculating on displaced geometry  38 (of  96) >>
	<< Calculating on displaced geometry  39 (of  96) >>
	<< Calculating on displaced geometry  40 (of  96) >>
	<< Calculating on displaced geometry  41 (of  96) >>
	<< Calculating on displaced geometry  42 (of  96) >>
	<< Calculating on displaced geometry  43 (of  96) >>
	<< Calculating on displaced geometry  44 (of  96) >>
	<< Calculating on displaced geometry  45 (of  96) >>
	<< Calculating on displaced geometry  46 (of  96) >>
	<< Calculating on displaced geometry  47 (of  96) >>
	<< Calculating on displaced geometry  48 (of  96) >>
	<< Calculating on displaced geometry  49 (of  96) >>
	<< Calculating on displaced geometry  50 (of  96) >>
	<< Calculating on displaced geometry  51 (of  96) >>
	<< Calculating on displaced geometry  52 (of  96) >>
	<< Calculating on displaced geometry  54 (of  96) >>
	<< Calculating on displaced geometry  53 (of  96) >>
	<< Calculating on displaced geometry  55 (of  96) >>
	<< Calculating on displaced geometry  56 (of  96) >>
	<< Calculating on displaced geometry  57 (of  96) >>
	<< Calculating on displaced geometry  58 (of  96) >>
	<< Calculating on displaced geometry  59 (of  96) >>
	<< Calculating on displaced geometry  60 (of  96) >>
	<< Calculating on displaced geometry  61 (of  96) >>
	<< Calculating on displaced geometry  62 (of  96) >>
	<< Calculating on displaced geometry  63 (of  96) >>
	<< Calculating on displaced geometry  64 (of  96) >>
	<< Calculating on displaced geometry  65 (of  96) >>
	<< Calculating on displaced geometry  66 (of  96) >>
	<< Calculating on displaced geometry  67 (of  96) >>
	<< Calculating on displaced geometry  68 (of  96) >>
	<< Calculating on displaced geometry  69 (of  96) >>
	<< Calculating on displaced geometry  70 (of  96) >>
	<< Calculating on displaced geometry  71 (of  96) >>
	<< Calculating on displaced geometry  72 (of  96) >>
	<< Calculating on displaced geometry  73 (of  96) >>
	<< Calculating on displaced geometry  74 (of  96) >>
	<< Calculating on displaced geometry  75 (of  96) >>
	<< Calculating on displaced geometry  76 (of  96) >>
	<< Calculating on displaced geometry  77 (of  96) >>
	<< Calculating on displaced geometry  78 (of  96) >>
	<< Calculating on displaced geometry  79 (of  96) >>
	<< Calculating on displaced geometry  80 (of  96) >>
	<< Calculating on displaced geometry  81 (of  96) >>
	<< Calculating on displaced geometry  82 (of  96) >>
	<< Calculating on displaced geometry  83 (of  96) >>
	<< Calculating on displaced geometry  84 (of  96) >>
	<< Calculating on displaced geometry  85 (of  96) >>
	<< Calculating on displaced geometry  86 (of  96) >>
	<< Calculating on displaced geometry  87 (of  96) >>
	<< Calculating on displaced geometry  88 (of  96) >>
	<< Calculating on displaced geometry  89 (of  96) >>
	<< Calculating on displaced geometry  90 (of  96) >>
	<< Calculating on displaced geometry  91 (of  96) >>
	<< Calculating on displaced geometry  92 (of  96) >>
	<< Calculating on displaced geometry  93 (of  96) >>
	<< Calculating on displaced geometry  94 (of  96) >>
	<< Calculating on displaced geometry  95 (of  96) >>
	<< Calculating on displaced geometry  96 (of  96) >>

-----------------------
VIBRATIONAL FREQUENCIES
-----------------------

Scaling factor for frequencies =  1.000000000 (already applied!)

   0:         0.00 cm**-1
   1:         0.00 cm**-1
   2:         0.00 cm**-1
   3:         0.00 cm**-1
   4:         0.00 cm**-1
   5:         0.00 cm**-1
   6:        44.78 cm**-1
   7:       129.25 cm**-1
   8:       163.91 cm**-1
   9:       328.70 cm**-1
  10:       383.39 cm**-1
  11:       410.02 cm**-1
  12:       467.10 cm**-1
  13:       507.92 cm**-1
  14:       553.67 cm**-1
  15:       564.01 cm**-1
  16:       630.43 cm**-1
  17:       657.05 cm**-1
  18:       720.26 cm**-1
  19:       737.77 cm**-1
  20:       791.12 cm**-1
  21:       876.07 cm**-1
  22:       953.58 cm**-1
  23:       984.95 cm**-1
  24:       992.93 cm**-1
  25:      1011.44 cm**-1
  26:      1015.17 cm**-1
  27:      1036.23 cm**-1
  28:      1058.97 cm**-1
  29:      1108.01 cm**-1
  30:      1136.23 cm**-1
  31:      1165.32 cm**-1
  32:      1198.06 cm**-1
  33:      1324.22 cm**-1
  34:      1374.70 cm**-1
  35:      1386.79 cm**-1
  36:      1430.66 cm**-1
  37:      1480.03 cm**-1
  38:      1538.62 cm**-1
  39:      1657.19 cm**-1
  40:      1685.63 cm**-1
  41:      3179.42 cm**-1
  42:      3181.00 cm**-1
  43:      3206.80 cm**-1
  44:      3217.65 cm**-1
  45:      3227.52 cm**-1
  46:      3919.87 cm**-1
  47:      3923.14 cm**-1


------------
NORMAL MODES
------------

These modes are the cartesian displacements weighted by the diagonal matrix
M(i,i)=1/sqrt(m[i]) where m[i] is the mass of the displaced atom
Thus, these vectors are normalized but *not* orthogonal

                  0          1          2          3          4          5    
      0       0.000000   0.000000   0.000000   0.000000   0.000000   0.000000
[...]
     36      -0.084369  -0.000777   0.005541   0.010964  -0.123372   0.032532
     37       0.011740   0.000161  -0.000150  -0.005981   0.025488  -0.020185
     38      -0.053042  -0.000340   0.000873   0.015331  -0.098291   0.056668
     39      -0.084672   0.000760   0.005566  -0.011470  -0.124710  -0.029713
     40      -0.022910   0.000310   0.000879  -0.007564  -0.042916  -0.023541
     41       0.048385  -0.000403  -0.000491   0.015062   0.093891   0.052809
     42       0.315104  -0.008055  -0.046503  -0.036919   0.293494  -0.068670
     43       0.088448  -0.006827  -0.025199  -0.022570   0.061600  -0.019586
     44      -0.167479   0.002857   0.023806   0.027306  -0.122633   0.078622
     45       0.314272   0.009113  -0.046881   0.039512   0.296349   0.059554
     46      -0.046801  -0.005827   0.018653  -0.017829  -0.023046  -0.009975
     47       0.183651   0.003567  -0.025501   0.030158   0.142871   0.079103
                 36         37         38         39         40         41    
      0       0.267919   0.311483  -0.418863   0.219947  -0.219920  -0.107998
      1       0.010478   0.007807  -0.022715   0.018999  -0.007212  -0.015892
      2      -0.179640  -0.282647   0.165060   0.094526   0.224455  -0.208584
      3      -0.180516  -0.161141   0.127908  -0.076812   0.298358   0.006071
      4      -0.010748  -0.010639   0.003939   0.003540   0.017665   0.001117
      5       0.066639  -0.008619  -0.114034   0.218346  -0.071522   0.017556
      6       0.002496  -0.003613  -0.115999   0.012417  -0.147082  -0.004642
      7      -0.002290   0.004779  -0.007819  -0.014148  -0.009792  -0.000323
      8      -0.077877   0.128220  -0.002652  -0.401773  -0.004271  -0.000239
      9       0.007677   0.019887  -0.143166  -0.015208  -0.173427   0.058767
     10      -0.005952  -0.022540  -0.007909   0.016193  -0.010072   0.003857
     11      -0.244440  -0.618257  -0.008165   0.485206  -0.007460   0.001136
     12       0.176031   0.160192   0.121892   0.063360   0.294017   0.001107
     13       0.012849   0.010555   0.012742   0.013039   0.021415   0.000009
     14       0.076138  -0.000045   0.121020   0.222626   0.088895  -0.001704
     15      -0.252682  -0.290045  -0.408662  -0.225524  -0.206664  -0.013443
     16      -0.023728  -0.030775  -0.034449  -0.012744  -0.021084   0.000037
     17      -0.192977  -0.297961  -0.190307   0.081975  -0.236796   0.022204
     18      -0.117126  -0.102747   0.072399   0.120962  -0.317921  -0.000356
     19      -0.008252  -0.007528   0.000080   0.001548  -0.016251  -0.000008
     20       0.009352  -0.064143  -0.104681  -0.181790   0.084143   0.000737
     21       0.097942   0.101129  -0.439007  -0.313888   0.291654  -0.001409
     22       0.009401  -0.007542  -0.010769  -0.010187   0.000523  -0.000278
     23      -0.104738  -0.193910   0.142427   0.030445  -0.242379  -0.004636
     24       0.000110  -0.004254  -0.169402  -0.008880   0.226630   0.001864
     25       0.013124  -0.002221  -0.011330   0.004386   0.014987   0.000166
     26      -0.059255   0.165692  -0.004759   0.286609   0.006913   0.002428
     27       0.115882   0.106433   0.066648  -0.109232  -0.312084   0.042613
     28       0.007156   0.006178   0.009387  -0.013916  -0.025383  -0.000398
     29       0.015364  -0.058565   0.108623  -0.188008  -0.102735  -0.072560
     30      -0.086910  -0.084387  -0.427467   0.304977   0.275013  -0.491000
     31      -0.002162  -0.018211  -0.048411   0.032694   0.037750   0.006153
     32      -0.107216  -0.197972  -0.167964   0.045101   0.258539   0.831736
     33       0.000686   0.000523   0.081544   0.000908  -0.053277   0.000530
     34      -0.181285   0.046963   0.005546   0.011306  -0.003527   0.000233
     35       0.501938  -0.153869   0.002111  -0.051789  -0.001540  -0.000870
     36      -0.059876   0.011987  -0.010977  -0.001432   0.004722  -0.000187
     37       0.048388  -0.011870   0.002730  -0.001811  -0.001261  -0.000026
     38      -0.141500   0.037464  -0.008973   0.009437   0.003001   0.000058
     39       0.059331  -0.012097  -0.011052   0.001217   0.004713  -0.000218
     40       0.055970  -0.013421  -0.004233  -0.001774   0.001863   0.000087
     41      -0.137424   0.036616   0.008487   0.009452  -0.002736   0.000145
     42       0.241424  -0.062074   0.039146  -0.027798  -0.021849  -0.000770
     43       0.095250  -0.026248   0.019944  -0.023459  -0.013424  -0.003924
     44      -0.238234   0.062577  -0.014792   0.020452   0.009215   0.004993
     45      -0.236884   0.061270   0.040543   0.029544  -0.022687   0.000646
     46       0.063403  -0.018091  -0.014723  -0.019706   0.010332  -0.000130
     47      -0.250311   0.065717   0.016908   0.022046  -0.010229   0.000112
                 42         43         44         45         46         47    
      0      -0.010640  -0.220169   0.322542  -0.231269   0.000014   0.000381
      1      -0.001670  -0.031883   0.046835  -0.033763  -0.000031   0.000060
      2      -0.020196  -0.409566   0.604981  -0.439699   0.000006   0.000188
      3       0.000971   0.021311  -0.029277   0.019341  -0.000053   0.000009
      4       0.000113   0.002849  -0.004161   0.002989  -0.000028   0.000002
      5       0.001576   0.034043  -0.053489   0.041573   0.000074   0.000064
      6      -0.004662  -0.060414   0.000237   0.063724   0.000000   0.000033
      7      -0.000274  -0.003979   0.000186   0.004224   0.000009   0.000000
      8      -0.000022  -0.001721   0.005124   0.001812  -0.000068  -0.000001
      9       0.059109   0.705513  -0.004217  -0.695244  -0.000015   0.000172
     10       0.003988   0.046581  -0.000427  -0.046060   0.000047   0.000078
     11       0.002260   0.020436  -0.003483  -0.020043   0.000146  -0.000067
     12       0.007491   0.023438   0.032651   0.021580   0.000053   0.000011
     13      -0.000196   0.000173  -0.000020  -0.000214  -0.000024   0.000001
     14      -0.017683  -0.032829  -0.051922  -0.039869   0.000080  -0.000056
     15      -0.124341  -0.245727  -0.360913  -0.254680  -0.000034   0.000407
     16       0.000256   0.000398   0.000708   0.000671  -0.000041  -0.000077
     17       0.207788   0.396760   0.587318   0.419687   0.000018  -0.000173
     18       0.037840  -0.008527  -0.008942  -0.006197  -0.000064   0.000069
     19       0.005751  -0.001155  -0.001077  -0.000712  -0.000017   0.000064
     20       0.074696  -0.013798  -0.011681  -0.007278  -0.000378   0.000584
     21      -0.436867   0.079066   0.070698   0.044044   0.000684  -0.000921
     22      -0.068116   0.011985   0.010623   0.006458   0.000911  -0.000635
     23      -0.856695   0.152889   0.133002   0.081416   0.002805  -0.002722
     24       0.001944  -0.000523  -0.000044  -0.000377  -0.000010   0.000398
     25       0.000097  -0.000029   0.000018  -0.000027   0.000138   0.000028
     26      -0.002371  -0.000001   0.001403  -0.000005  -0.000330   0.000001
     27      -0.001461  -0.009062   0.009511  -0.006553   0.000082   0.000122
     28      -0.000026  -0.000053   0.000145  -0.000127  -0.000003  -0.000051
     29       0.001112   0.012763  -0.010879   0.006716  -0.000348  -0.000611
     30       0.011136   0.085122  -0.077370   0.047662  -0.000969  -0.001383
     31      -0.000089  -0.000838   0.000629  -0.000275   0.000750   0.000571
     32      -0.017045  -0.142068   0.125693  -0.076425   0.002667   0.002951
     33       0.000499  -0.000432   0.000003  -0.000340  -0.000086   0.003264
     34      -0.000146  -0.000030   0.000052  -0.000020  -0.000555   0.000194
     35       0.000889  -0.000015  -0.000306  -0.000010   0.001057   0.000132
     36      -0.000144   0.000110  -0.000020   0.000113  -0.023023   0.021354
     37      -0.000086   0.000016   0.000022   0.000003  -0.017214   0.016478
     38      -0.000131   0.000034   0.000045   0.000026   0.034770  -0.033629
     39      -0.000179   0.000125   0.000014   0.000117   0.021887   0.022896
     40      -0.000021  -0.000002   0.000010   0.000008  -0.013262  -0.014426
     41      -0.000075  -0.000030   0.000044  -0.000024   0.033845   0.036880
     42       0.000607  -0.000235  -0.000033  -0.000513  -0.362049  -0.384598
     43       0.000305   0.000613  -0.000500   0.000174   0.211355   0.223910
     44      -0.000260  -0.000844   0.000700  -0.000500  -0.540700  -0.574442
     45      -0.001135  -0.000178   0.000074  -0.000496   0.381223  -0.359040
     46       0.003471  -0.000613  -0.000432  -0.000232   0.275766  -0.259092
     47      -0.004986   0.000868   0.000730   0.000489  -0.553769   0.521483


-----------
IR SPECTRUM
-----------

 Mode   freq       eps      Int      T**2         TX        TY        TZ
       cm**-1   L/(mol*cm) km/mol    a.u.
----------------------------------------------------------------------------
  6:     44.78   0.000041    0.21  0.000288  ( 0.016866 -0.001236  0.001282)
  7:    129.25   0.000375    1.89  0.000905  ( 0.001819 -0.022556  0.019816)
  8:    163.91   0.001369    6.92  0.002606  ( 0.002404 -0.010684 -0.049858)
  9:    328.70   0.000352    1.78  0.000334  (-0.018181 -0.001840 -0.000322)
 10:    383.39   0.001918    9.69  0.001561  (-0.001109  0.032858 -0.021914)
 11:    410.02   0.000022    0.11  0.000016  ( 0.003085 -0.002275 -0.001307)
 12:    467.10   0.002168   10.96  0.001449  (-0.000815  0.007692  0.037268)
 13:    507.92   0.000230    1.16  0.000141  (-0.011805  0.001279  0.000647)
 14:    553.67   0.000036    0.18  0.000020  (-0.004117 -0.001735 -0.000539)
 15:    564.01   0.041265  208.54  0.022832  ( 0.010540 -0.141462 -0.052050)
 16:    630.43   0.000092    0.46  0.000045  ( 0.000439 -0.006362 -0.002167)
 17:    657.05   0.016646   84.12  0.007906  (-0.006497  0.087824  0.012283)
 18:    720.26   0.012734   64.35  0.005517  (-0.005025  0.073947 -0.004878)
 19:    737.77   0.000373    1.89  0.000158  (-0.012559 -0.000224 -0.000244)
 20:    791.12   0.000529    2.67  0.000209  (-0.001217  0.013048 -0.006087)
 21:    876.07   0.000153    0.78  0.000055  ( 0.007378  0.000472 -0.000111)
 22:    953.58   0.000289    1.46  0.000095  ( 0.001687 -0.005731  0.007679)
 23:    984.95   0.014813   74.86  0.004693  (-0.068324 -0.004298 -0.002538)
 24:    992.93   0.054844  277.16  0.017237  (-0.000725 -0.044165  0.123635)
 25:   1011.44   0.000353    1.78  0.000109  ( 0.010110 -0.000311  0.002544)
 26:   1015.17   0.001661    8.39  0.000511  ( 0.022504  0.001938 -0.000659)
 27:   1036.23   0.000041    0.21  0.000012  ( 0.001444 -0.000829  0.003116)
 28:   1058.97   0.002590   13.09  0.000763  ( 0.027534  0.001652  0.001504)
 29:   1108.01   0.005116   25.85  0.001441  (-0.001949 -0.010099  0.036539)
 30:   1136.23   0.012513   63.24  0.003437  ( 0.058484  0.003797  0.001405)
 31:   1165.32   0.000223    1.13  0.000060  ( 0.000267 -0.001056  0.007646)
 32:   1198.06   0.000051    0.26  0.000013  (-0.003635 -0.000166  0.000330)
 33:   1324.22   0.000194    0.98  0.000046  (-0.000156  0.006538  0.001702)
 34:   1374.70   0.132176  667.96  0.030005  ( 0.172766  0.011838  0.004032)
 35:   1386.79   0.009208   46.53  0.002072  (-0.002054  0.016186 -0.042495)
 36:   1430.66   0.038008  192.08  0.008291  ( 0.001034 -0.037054  0.083166)
 37:   1480.03   0.017787   89.89  0.003750  ( 0.000998  0.013869 -0.059642)
 38:   1538.62   0.003446   17.42  0.000699  ( 0.026381  0.001680  0.000479)
 39:   1657.19   0.000368    1.86  0.000069  (-0.000200  0.002232 -0.008019)
 40:   1685.63   0.005721   28.91  0.001059  (-0.032467 -0.002118 -0.000755)
 41:   3179.42   0.002490   12.59  0.000244  ( 0.011186  0.001279 -0.010848)
 42:   3181.00   0.002333   11.79  0.000229  ( 0.009914  0.000130  0.011425)
 43:   3206.80   0.000138    0.70  0.000013  (-0.003642 -0.000261 -0.000252)
 44:   3217.65   0.003578   18.08  0.000347  ( 0.000677 -0.000318 -0.018613)
 45:   3227.52   0.001544    7.80  0.000149  ( 0.012178  0.000821  0.000538)
 46:   3919.87   0.038557  194.85  0.003070  ( 0.000111  0.022686 -0.050546)
 47:   3923.14   0.001458    7.37  0.000116  (-0.010619 -0.000061 -0.001790)

* The epsilon (eps) is given for a Dirac delta lineshape.
** The dipole moment derivative (T) already includes vibrational overlap.

The first frequency considered to be a vibration is 6
The total number of vibrations considered is 42


--------------------------
THERMOCHEMISTRY AT 298.15K
--------------------------

Temperature         ... 298.15 K
Pressure            ... 1.00 atm
Total Mass          ... 121.93 AMU

Throughout the following assumptions are being made:
  (1) The electronic state is orbitally nondegenerate
  (2) There are no thermally accessible electronically excited states
  (3) Hindered rotations indicated by low frequency modes are not
      treated as such but are treated as vibrations and this may
      cause some error
  (4) All equations used are the standard statistical mechanics
      equations for an ideal gas
  (5) All vibrations are strictly harmonic

freq.      44.78  E(vib)   ...       0.53 
freq.     129.25  E(vib)   ...       0.43 
freq.     163.91  E(vib)   ...       0.39 
freq.     328.70  E(vib)   ...       0.24 
freq.     383.39  E(vib)   ...       0.20 
freq.     410.02  E(vib)   ...       0.19 
freq.     467.10  E(vib)   ...       0.16 
freq.     507.92  E(vib)   ...       0.14 
freq.     553.67  E(vib)   ...       0.12 
freq.     564.01  E(vib)   ...       0.11 
freq.     630.43  E(vib)   ...       0.09 
freq.     657.05  E(vib)   ...       0.08 
freq.     720.26  E(vib)   ...       0.07 
freq.     737.77  E(vib)   ...       0.06 
freq.     791.12  E(vib)   ...       0.05 
freq.     876.07  E(vib)   ...       0.04 
freq.     953.58  E(vib)   ...       0.03 
freq.     984.95  E(vib)   ...       0.02 
freq.     992.93  E(vib)   ...       0.02 
freq.    1011.44  E(vib)   ...       0.02 
freq.    1015.17  E(vib)   ...       0.02 
freq.    1036.23  E(vib)   ...       0.02 
freq.    1058.97  E(vib)   ...       0.02 
freq.    1108.01  E(vib)   ...       0.02 
freq.    1136.23  E(vib)   ...       0.01 
freq.    1165.32  E(vib)   ...       0.01 
freq.    1198.06  E(vib)   ...       0.01 
freq.    1324.22  E(vib)   ...       0.01 
freq.    1374.70  E(vib)   ...       0.01 
freq.    1386.79  E(vib)   ...       0.00 
freq.    1430.66  E(vib)   ...       0.00 
freq.    1480.03  E(vib)   ...       0.00 
freq.    1538.62  E(vib)   ...       0.00 
freq.    1657.19  E(vib)   ...       0.00 
freq.    1685.63  E(vib)   ...       0.00 
freq.    3179.42  E(vib)   ...       0.00 
freq.    3181.00  E(vib)   ...       0.00 
freq.    3206.80  E(vib)   ...       0.00 
freq.    3217.65  E(vib)   ...       0.00 
freq.    3227.52  E(vib)   ...       0.00 
freq.    3919.87  E(vib)   ...       0.00 
freq.    3923.14  E(vib)   ...       0.00 

------------
INNER ENERGY
------------

The inner energy is: U= E(el) + E(ZPE) + E(vib) + E(rot) + E(trans)
    E(el)   - is the total energy from the electronic structure calculation
              = E(kin-el) + E(nuc-el) + E(el-el) + E(nuc-nuc)
    E(ZPE)  - the the zero temperature vibrational energy from the frequency calculation
    E(vib)  - the the finite temperature correction to E(ZPE) due to population
              of excited vibrational states
    E(rot)  - is the rotational thermal energy
    E(trans)- is the translational thermal energy

Summary of contributions to the inner energy U:
Electronic energy                ...   -407.54570140 Eh
Zero point energy                ...      0.12611839 Eh      79.14 kcal/mol
Thermal vibrational correction   ...      0.00499263 Eh       3.13 kcal/mol
Thermal rotational correction    ...      0.00141627 Eh       0.89 kcal/mol
Thermal translational correction ...      0.00141627 Eh       0.89 kcal/mol
-----------------------------------------------------------------------
Total thermal energy                   -407.41175783 Eh


Summary of corrections to the electronic energy:
(perhaps to be used in another calculation)
Total thermal correction                  0.00782518 Eh       4.91 kcal/mol
Non-thermal (ZPE) correction              0.12611839 Eh      79.14 kcal/mol
-----------------------------------------------------------------------
Total correction                          0.13394357 Eh      84.05 kcal/mol


--------
ENTHALPY
--------

The enthalpy is H = U + kB*T
                kB is Boltzmann's constant
Total free energy                 ...   -407.41175783 Eh 
Thermal Enthalpy correction       ...      0.00094421 Eh       0.59 kcal/mol
-----------------------------------------------------------------------
Total Enthalpy                    ...   -407.41081363 Eh


Note: Only C1 symmetry has been detected, increase convergence thresholds 
      if your molecule has a higher symmetry. Symmetry factor of 1.0 is   
      used for the rotational entropy correction. 
 

Note: Rotational entropy computed according to Herzberg 
Infrared and Raman Spectra, Chapter V,1, Van Nostrand Reinhold, 1945 
Point Group:  C1, Symmetry Number:   1  
Rotational constants in cm-1:     0.121946     0.037196     0.028970 

Vibrational entropy computed according to the QRRHO of S. Grimme
Chem.Eur.J. 2012 18 9955


-------
ENTROPY
-------

The entropy contributions are T*S = T*(S(el)+S(vib)+S(rot)+S(trans))
     S(el)   - electronic entropy
     S(vib)  - vibrational entropy
     S(rot)  - rotational entropy
     S(trans)- translational entropy
The entropies will be listed as multiplied by the temperature to get
units of energy

Electronic entropy                ...      0.00000000 Eh      0.00 kcal/mol
Vibrational entropy               ...      0.00824840 Eh      5.18 kcal/mol
Rotational entropy                ...      0.01372999 Eh      8.62 kcal/mol
Translational entropy             ...      0.01915206 Eh     12.02 kcal/mol
-----------------------------------------------------------------------
Final entropy term                ...      0.04113045 Eh     25.81 kcal/mol

In case the symmetry of your molecule has not been determined correctly
or in case you have a reason to use a different symmetry number we print 
out the resulting rotational entropy values for sn=1,12 :
 --------------------------------------------------------
|  sn= 1 | S(rot)=       0.01372999 Eh      8.62 kcal/mol|
|  sn= 2 | S(rot)=       0.01307554 Eh      8.21 kcal/mol|
|  sn= 3 | S(rot)=       0.01269270 Eh      7.96 kcal/mol|
|  sn= 4 | S(rot)=       0.01242108 Eh      7.79 kcal/mol|
|  sn= 5 | S(rot)=       0.01221039 Eh      7.66 kcal/mol|
|  sn= 6 | S(rot)=       0.01203825 Eh      7.55 kcal/mol|
|  sn= 7 | S(rot)=       0.01189270 Eh      7.46 kcal/mol|
|  sn= 8 | S(rot)=       0.01176662 Eh      7.38 kcal/mol|
|  sn= 9 | S(rot)=       0.01165541 Eh      7.31 kcal/mol|
|  sn=10 | S(rot)=       0.01155593 Eh      7.25 kcal/mol|
|  sn=11 | S(rot)=       0.01146594 Eh      7.19 kcal/mol|
|  sn=12 | S(rot)=       0.01138379 Eh      7.14 kcal/mol|
 --------------------------------------------------------


-------------------
GIBBS FREE ENERGY
-------------------

The Gibbs free energy is G = H - T*S

Total enthalpy                    ...   -407.41081363 Eh 
Total entropy correction          ...     -0.04113045 Eh    -25.81 kcal/mol
-----------------------------------------------------------------------
Final Gibbs free energy         ...   -407.45194408 Eh

For completeness - the Gibbs free energy minus the electronic energy
G-E(el)                           ...      0.09375733 Eh     58.83 kcal/mol



Timings for individual modules:

Sum of individual times         ...     1681.311 sec (=  28.022 min)
GTO integral calculation        ...        3.716 sec (=   0.062 min)   0.2 %
SCF iterations                  ...       81.739 sec (=   1.362 min)   4.9 %
SCF Gradient evaluation         ...       12.669 sec (=   0.211 min)   0.8 %
Numerical frequency calculation ...     1583.186 sec (=  26.386 min)  94.2 %
                             ****ORCA TERMINATED NORMALLY****
TOTAL RUN TIME: 0 days 0 hours 27 minutes 5 seconds 991 msec
