
                                 *****************
                                 * O   R   C   A *
                                 *****************

                                            #,                                       
                                            ###                                      
                                            ####                                     
                                            #####                                    
                                            ######                                   
                                           ########,                                 
                                     ,,################,,,,,                         
                               ,,#################################,,                 
                          ,,##########################################,,             
                       ,#########################################, ''#####,          
                    ,#############################################,,   '####,        
                  ,##################################################,,,,####,       
                ,###########''''           ''''###############################       
              ,#####''   ,,,,##########,,,,          '''####'''          '####       
            ,##' ,,,,###########################,,,                        '##       
           ' ,,###''''                  '''############,,,                           
         ,,##''                                '''############,,,,        ,,,,,,###''
      ,#''                                            '''#######################'''  
     '                                                          ''''####''''         
             ,#######,   #######,   ,#######,      ##                                
            ,#'     '#,  ##    ##  ,#'     '#,    #''#        ######   ,####,        
            ##       ##  ##   ,#'  ##            #'  '#       #        #'  '#        
            ##       ##  #######   ##           ,######,      #####,   #    #        
            '#,     ,#'  ##    ##  '#,     ,#' ,#      #,         ##   #,  ,#        
             '#######'   ##     ##  '#######'  #'      '#     #####' # '####'        



                  #######################################################
                  #                        -***-                        #
                  #          Department of theory and spectroscopy      #
                  #    Directorship and core code : Frank Neese         #
                  #        Max Planck Institute fuer Kohlenforschung    #
                  #                Kaiser Wilhelm Platz 1               #
                  #                 D-45470 Muelheim/Ruhr               #
                  #                      Germany                        #
                  #                                                     #
                  #                  All rights reserved                #
                  #                        -***-                        #
                  #######################################################


                         Program Version 5.0.4 -  RELEASE  -


 With contributions from (in alphabetic order):
   Daniel Aravena         : Magnetic Suceptibility
   Michael Atanasov       : Ab Initio Ligand Field Theory (pilot matlab implementation)
   Alexander A. Auer      : GIAO ZORA, VPT2 properties, NMR spectrum
   Ute Becker             : Parallelization
   Giovanni Bistoni       : ED, misc. LED, open-shell LED, HFLD
   Martin Brehm           : Molecular dynamics
   Dmytro Bykov           : SCF Hessian
   Vijay G. Chilkuri      : MRCI spin determinant printing, contributions to CSF-ICE
   Dipayan Datta          : RHF DLPNO-CCSD density
   Achintya Kumar Dutta   : EOM-CC, STEOM-CC
   Dmitry Ganyushin       : Spin-Orbit,Spin-Spin,Magnetic field MRCI
   Miquel Garcia          : C-PCM and meta-GGA Hessian, CC/C-PCM, Gaussian charge scheme
   Yang Guo               : DLPNO-NEVPT2, F12-NEVPT2, CIM, IAO-localization
   Andreas Hansen         : Spin unrestricted coupled pair/coupled cluster methods
   Benjamin Helmich-Paris : MC-RPA, TRAH-SCF, COSX integrals
   Lee Huntington         : MR-EOM, pCC
   Robert Izsak           : Overlap fitted RIJCOSX, COSX-SCS-MP3, EOM
   Marcus Kettner         : VPT2
   Christian Kollmar      : KDIIS, OOCD, Brueckner-CCSD(T), CCSD density, CASPT2, CASPT2-K
   Simone Kossmann        : Meta GGA functionals, TD-DFT gradient, OOMP2, MP2 Hessian
   Martin Krupicka        : Initial AUTO-CI
   Lucas Lang             : DCDCAS
   Marvin Lechner         : AUTO-CI (C++ implementation), FIC-MRCC
   Dagmar Lenk            : GEPOL surface, SMD
   Dimitrios Liakos       : Extrapolation schemes; Compound Job, initial MDCI parallelization
   Dimitrios Manganas     : Further ROCIS development; embedding schemes
   Dimitrios Pantazis     : SARC Basis sets
   Anastasios Papadopoulos: AUTO-CI, single reference methods and gradients
   Taras Petrenko         : DFT Hessian,TD-DFT gradient, ASA, ECA, R-Raman, ABS, FL, XAS/XES, NRVS
   Peter Pinski           : DLPNO-MP2, DLPNO-MP2 Gradient
   Christoph Reimann      : Effective Core Potentials
   Marius Retegan         : Local ZFS, SOC
   Christoph Riplinger    : Optimizer, TS searches, QM/MM, DLPNO-CCSD(T), (RO)-DLPNO pert. Triples
   Tobias Risthaus        : Range-separated hybrids, TD-DFT gradient, RPA, STAB
   Michael Roemelt        : Original ROCIS implementation
   Masaaki Saitow         : Open-shell DLPNO-CCSD energy and density
   Barbara Sandhoefer     : DKH picture change effects
   Avijit Sen             : IP-ROCIS
   Kantharuban Sivalingam : CASSCF convergence, NEVPT2, FIC-MRCI
   Bernardo de Souza      : ESD, SOC TD-DFT
   Georgi Stoychev        : AutoAux, RI-MP2 NMR, DLPNO-MP2 response
   Willem Van den Heuvel  : Paramagnetic NMR
   Boris Wezisla          : Elementary symmetry handling
   Frank Wennmohs         : Technical directorship


 We gratefully acknowledge several colleagues who have allowed us to
 interface, adapt or use parts of their codes:
   Stefan Grimme, W. Hujo, H. Kruse, P. Pracht,  : VdW corrections, initial TS optimization,
                  C. Bannwarth, S. Ehlert          DFT functionals, gCP, sTDA/sTD-DF
   Ed Valeev, F. Pavosevic, A. Kumar             : LibInt (2-el integral package), F12 methods
   Garnet Chan, S. Sharma, J. Yang, R. Olivares  : DMRG
   Ulf Ekstrom                                   : XCFun DFT Library
   Mihaly Kallay                                 : mrcc  (arbitrary order and MRCC methods)
   Jiri Pittner, Ondrej Demel                    : Mk-CCSD
   Frank Weinhold                                : gennbo (NPA and NBO analysis)
   Christopher J. Cramer and Donald G. Truhlar   : smd solvation model
   Lars Goerigk                                  : TD-DFT with DH, B97 family of functionals
   V. Asgeirsson, H. Jonsson                     : NEB implementation
   FAccTs GmbH                                   : IRC, NEB, NEB-TS, DLPNO-Multilevel, CI-OPT
                                                   MM, QMMM, 2- and 3-layer-ONIOM, Crystal-QMMM,
                                                   LR-CPCM, SF, NACMEs, symmetry and pop. for TD-DFT,
                                                   nearIR, NL-DFT gradient (VV10), updates on ESD,
                                                   ML-optimized integration grids
   S Lehtola, MJT Oliveira, MAL Marques          : LibXC Library
   Liviu Ungur et al                             : ANISO software


 Your calculation uses the libint2 library for the computation of 2-el integrals
 For citations please refer to: http://libint.valeyev.net

 Your ORCA version has been built with support for libXC version: 5.1.0
 For citations please refer to: https://tddft.org/programs/libxc/

 This ORCA versions uses:
   CBLAS   interface :  Fast vector & matrix operations
   LAPACKE interface :  Fast linear algebra routines
   SCALAPACK package :  Parallel linear algebra routines
   Shared memory     :  Shared parallel matrices
   BLAS/LAPACK       :  OpenBLAS 0.3.15  USE64BITINT DYNAMIC_ARCH NO_AFFINITY Zen SINGLE_THREADED
        Core in use  :  Zen
   Copyright (c) 2011-2014, The OpenBLAS Project


Your calculation utilizes the atom-pairwise dispersion correction
with the Becke-Johnson damping scheme (D3BJ)
Cite in your paper:
S.Grimme, S.Ehrlich, L.Goerigk, J Comput Chem, (2011), 32, 1456–1465 
S.Grimme, J.Antony, S.Ehrlich and H.Krieg, J.Chem.Phys., 132, (2010), 154104 
   

================================================================================

----- Orbital basis set information -----
Your calculation utilizes the basis: def2-SVP
   F. Weigend and R. Ahlrichs, Phys. Chem. Chem. Phys. 7, 3297 (2005).

The basis set includes element-specific modifications.

Your calculation utilizes the basis: 6-31G*
   H-He, Li-Ne : W. J. Hehre, R. Ditchfield and J.A. Pople, J. Chem. Phys. 56, 2257 (1972).
                 Note: He and Ne are unpublished basis sets taken from the Gaussian program.
                 Note: Li and B from J. D. Dill and J. A. Pople, J. Chem. Phys. 62, 2921 (1975).
   Na - Ar     : M. M. Francl, W. J. Pietro, W. J. Hehre, J. S. Binkley, M. S. Gordon, 
                 D. J. DeFrees and J. A. Pople, J. Chem. Phys. 77, 3654 (1982).
   K - Zn      : V. A. Rassolov, J. A. Pople, M. A. Ratner, and T. L. Windus, J. Chem. Phys. 109, 1223 (1998).

Your calculation utilizes the basis: 6-31+G*
   H-He, Li-Ne : W. J. Hehre, R. Ditchfield and J.A. Pople, J. Chem. Phys. 56, 2257 (1972).
                 Note: He and Ne are unpublished basis sets taken from the Gaussian program.
                 Note: Li and B from J. D. Dill and J. A. Pople, J. Chem. Phys. 62, 2921 (1975).
   Na - Ar     : M. M. Francl, W. J. Pietro, W. J. Hehre, J. S. Binkley, M. S. Gordon, 
                 D. J. DeFrees and J. A. Pople, J. Chem. Phys. 77, 3654 (1982).
   K - Zn      : V. A. Rassolov, J. A. Pople, M. A. Ratner, and T. L. Windus, J. Chem. Phys. 109, 1223 (1998).
   Additional Pol./Diff. from the 6-311G equivalent.

Your calculation utilizes the basis: def2-SVPD
   F. Weigend and R. Ahlrichs, Phys. Chem. Chem. Phys. 7, 3297 (2005).
   D. Rappoport and F. Furche, J. Chem. Phys. 133 134105 (2010).

----- AuxJ basis set information -----
Your calculation utilizes the auxiliary basis: def2/J
   F. Weigend, Phys. Chem. Chem. Phys. 8, 1057 (2006).

================================================================================
                                        WARNINGS
                       Please study these warnings very carefully!
================================================================================


WARNING: Geometry Optimization
  ===> : Switching off AutoStart
         For restart on a previous wavefunction, please use MOREAD

INFO   : the flag for use of the SHARK integral package has been found!

================================================================================
                                       INPUT FILE
================================================================================
NAME = CsHCO3.inp
|  1> # CsHCO3 is part of the proposed mechanism - see computational notebook for full details
|  2> ! PBE0 D3BJ printbasis
|  3> ! opt
|  4> 
|  5> %basis
|  6>   newgto C "6-31G*" end
|  7>   newgto H "6-31G*" end
|  8>   newgto O "6-31+G*" end
|  9>   newgto Cs "def2-SVPD" end
| 10> NewECP CS
| 11>   N_core 46
| 12>   lmax f
| 13>   s 3
| 14>    1      4.0797500     84.5477300 2
| 15>    2      2.4174060     16.6541730 2
| 16>    3      3.1232690     28.8843090 2
| 17>   p 3
| 18>    1      5.5140800    157.0490590 2
| 19>    2      2.1603160     26.4233070 2
| 20>    3      3.1232690     28.8843090 2
| 21>   d 3
| 22>    1      1.8074100     13.1727530 2
| 23>    2      0.8581820      3.3428330 2
| 24>    3      3.1232690     28.8843090 2
| 25>   f 1
| 26>    1      3.1232690    -28.8843090 2
| 27> end
| 28> end
| 29> 
| 30> %pal
| 31>   nprocs 4
| 32> end
| 33> 
| 34> %maxcore 1500
| 35> 
| 36> * xyz 0 1
| 37> C     -5.21645    4.48529   -0.24910
| 38> O     -5.24857    5.57529    0.33884
| 39> O     -5.64946    3.30122    0.55173
| 40> O     -4.54222    4.33643   -1.32748
| 41> Cs    -5.99987    5.74148    2.90248
| 42> H     -4.22811    5.45965   -1.56162
| 43> *
| 44> 
| 45>                          ****END OF INPUT****
================================================================================

                       *****************************
                       * Geometry Optimization Run *
                       *****************************

Geometry optimization settings:
Update method            Update   .... BFGS
Choice of coordinates    CoordSys .... Z-matrix Internals
Initial Hessian          InHess   .... Almoef's Model

Convergence Tolerances:
Energy Change            TolE     ....  5.0000e-06 Eh
Max. Gradient            TolMAXG  ....  3.0000e-04 Eh/bohr
RMS Gradient             TolRMSG  ....  1.0000e-04 Eh/bohr
Max. Displacement        TolMAXD  ....  4.0000e-03 bohr
RMS Displacement         TolRMSD  ....  2.0000e-03 bohr
Strict Convergence                ....  False
------------------------------------------------------------------------------
                        ORCA OPTIMIZATION COORDINATE SETUP
------------------------------------------------------------------------------

The optimization will be done in new redundant internal coordinates
Making redundant internal coordinates   ...  (new redundants) done
Evaluating the initial hessian          ...  (Almloef) done
Evaluating the coordinates              ...  done
Calculating the B-matrix                .... done
Calculating the G-matrix                .... done
Diagonalizing the G-matrix              .... done
The first mode is                       ....    9
The number of degrees of freedom        ....   12

    -----------------------------------------------------------------
                    Redundant Internal Coordinates


    -----------------------------------------------------------------
         Definition                    Initial Value    Approx d2E/dq
    -----------------------------------------------------------------
      1. B(O   1,C   0)                  1.2389         0.974967   
      2. B(O   2,C   0)                  1.4936         0.382459   
      3. B(O   3,C   0)                  1.2805         0.836749   
      4. B(Cs  4,O   2)                  3.4064         0.000790   
      5. B(Cs  4,O   1)                  2.6766         0.011537   
      6. B(H   5,O   3)                  1.1896         0.223707   
      7. A(O   2,C   0,O   3)          120.7995         0.414618   
      8. A(O   1,C   0,O   2)          115.8187         0.426082   
      9. A(O   1,C   0,O   3)          121.0379         0.491432   
     10. A(C   0,O   1,Cs  4)          121.0944         0.250977   
     11. A(C   0,O   2,Cs  4)           80.3239         0.160439   
     12. A(C   0,O   3,H   5)          101.2462         0.337572   
     13. A(O   1,Cs  4,O   2)           42.7504         0.123328   
     14. D(Cs  4,O   1,C   0,O   2)      1.3601         0.077270   
     15. D(Cs  4,O   1,C   0,O   3)   -161.3879         0.077270   
     16. D(Cs  4,O   2,C   0,O   3)    161.8640         0.010596   
     17. D(Cs  4,O   2,C   0,O   1)     -0.9283         0.010596   
     18. D(H   5,O   3,C   0,O   2)   -170.4349         0.054560   
     19. D(H   5,O   3,C   0,O   1)     -8.5426         0.054560   
     20. D(O   2,Cs  4,O   1,C   0)     -0.7908         0.001503   
     21. D(O   1,Cs  4,O   2,C   0)      0.5698         0.001500   
    -----------------------------------------------------------------

Number of atoms                         .... 6
Number of degrees of freedom            .... 21

         *************************************************************
         *                GEOMETRY OPTIMIZATION CYCLE   1            *
         *************************************************************
---------------------------------
CARTESIAN COORDINATES (ANGSTROEM)
---------------------------------
  C     -5.216450    4.485290   -0.249100
  O     -5.248570    5.575290    0.338840
  O     -5.649460    3.301220    0.551730
  O     -4.542220    4.336430   -1.327480
  Cs    -5.999870    5.741480    2.902480
  H     -4.228110    5.459650   -1.561620

----------------------------
CARTESIAN COORDINATES (A.U.)
----------------------------
  NO LB      ZA    FRAG     MASS         X           Y           Z
   0 C     6.0000    0    12.011   -9.857662    8.475970   -0.470731
   1 O     8.0000    0    15.999   -9.918360   10.535771    0.640315
   2 O     8.0000    0    15.999  -10.675932    6.238402    1.042619
   3 O     8.0000    0    15.999   -8.583552    8.194665   -2.508574
   4 Cs    9.0000*   0   132.905  -11.338111   10.849825    5.484892
   5 H     1.0000    0     1.008   -7.989970   10.317243   -2.951034
* core charge reduced due to ECP

--------------------------------
INTERNAL COORDINATES (ANGSTROEM)
--------------------------------
 C      0   0   0     0.000000000000     0.00000000     0.00000000
 O      1   0   0     1.238872526937     0.00000000     0.00000000
 O      1   2   0     1.493602394849   115.81870460     0.00000000
 O      1   2   3     1.280487726181   121.03793244   197.25204473
 Cs     2   1   3     2.676624900075   121.09439769     1.36005477
 H      4   1   2     1.189583876866   101.24619918   351.45737181

---------------------------
INTERNAL COORDINATES (A.U.)
---------------------------
 C      0   0   0     0.000000000000     0.00000000     0.00000000
 O      1   0   0     2.341129790750     0.00000000     0.00000000
 O      1   2   0     2.822499479234   115.81870460     0.00000000
 O      1   2   3     2.419771120329   121.03793244   197.25204473
 Cs     2   1   3     5.058088024376   121.09439769     1.36005477
 H      4   1   2     2.247987740605   101.24619918   351.45737181

---------------------
BASIS SET INFORMATION
---------------------
There are 4 groups of distinct atoms

 Group   1 Type C   : 10s4p1d contracted to 3s2p1d pattern {631/31/1}
 Group   2 Type O   : 11s5p1d contracted to 4s3p1d pattern {6311/311/1}
 Group   3 Type Cs  : 7s7p2d contracted to 5s4p2d pattern {31111/4111/11}
 Group   4 Type H   : 4s contracted to 2s pattern {31}

Atom   0C    basis set group =>   1
Atom   1O    basis set group =>   2
Atom   2O    basis set group =>   2
Atom   3O    basis set group =>   2
Atom   4Cs   basis set group =>   3
Atom   5H    basis set group =>   4

-------------------------
BASIS SET IN INPUT FORMAT
-------------------------

 # Basis set for element : H 
 NewGTO H 
 S 3 
   1      18.7311370000      0.0334945995
   2       2.8253937000      0.2347269467
   3       0.6401217000      0.8137573184
 S 1 
   1       0.1612778000      1.0000000000
  end;

 # Basis set for element : C 
 NewGTO C 
 S 6 
   1    3047.5249000000      0.0018347002
   2     457.3695100000      0.0140373012
   3     103.9486900000      0.0688426061
   4      29.2101550000      0.2321844206
   5       9.2866630000      0.4679413416
   6       3.1639270000      0.3623120322
 S 3 
   1       7.8682724000     -0.1193324086
   2       1.8812885000     -0.1608542116
   3       0.5442493000      1.1434564826
 P 3 
   1       7.8682724000      0.0689990956
   2       1.8812885000      0.3164239798
   3       0.5442493000      0.7443082524
 S 1 
   1       0.1687144000      1.0000000000
 P 1 
   1       0.1687144000      1.0000000000
 D 1 
   1       0.8000000000      1.0000000000
  end;

 # Basis set for element : O 
 NewGTO O 
 S 6 
   1    5484.6717000000      0.0018310998
   2     825.2349500000      0.0139500985
   3     188.0469600000      0.0684450927
   4      52.9645000000      0.2327142753
   5      16.8975700000      0.4701929501
   6       5.7996353000      0.3585208619
 S 3 
   1      15.5396160000     -0.1107775038
   2       3.5999336000     -0.1480263051
   3       1.0137618000      1.1307670390
 P 3 
   1      15.5396160000      0.0708742995
   2       3.5999336000      0.3397527978
   3       1.0137618000      0.7271585953
 S 1 
   1       0.2700058000      1.0000000000
 P 1 
   1       0.2700058000      1.0000000000
 S 1 
   1       0.0845000000      1.0000000000
 P 1 
   1       0.0845000000      1.0000000000
 D 1 
   1       0.8000000000      1.0000000000
  end;

 # Basis set for element : Cs
 NewGTO Cs
 S 3 
   1       5.8778113443      0.2532294620
   2       4.3631538286     -0.6819588200
   3       1.8048475155      1.3770221239
 S 1 
   1       0.3748523714      1.0000000000
 S 1 
   1       0.1638485878      1.0000000000
 S 1 
   1       0.0272304620      1.0000000000
 S 1 
   1       0.0119915332      1.0000000000
 P 4 
   1       4.2751856154      0.0454150690
   2       1.9656663360     -0.2485141953
   3       0.4768919521      0.5528590081
   4       0.2152974959      0.5782637464
 P 1 
   1       0.0914508503      1.0000000000
 P 1 
   1       0.0175920785      1.0000000000
 D 1 
   1       0.1330000000      1.0000000000
 D 1 
   1       0.0332162148      1.0000000000
 P 1 
   1       0.0033986441      1.0000000000
  end;

---------------------------------
AUXILIARY/J BASIS SET INFORMATION
---------------------------------
There are 4 groups of distinct atoms

 Group   1 Type C   : 12s5p4d2f1g contracted to 6s4p3d1f1g pattern {711111/2111/211/2/1}
 Group   2 Type O   : 12s5p4d2f1g contracted to 6s4p3d1f1g pattern {711111/2111/211/2/1}
 Group   3 Type Cs  : 11s5p5d3f1g contracted to 8s4p4d1f1g pattern {41111111/2111/2111/3/1}
 Group   4 Type H   : 5s2p1d contracted to 3s1p1d pattern {311/2/1}

Atom   0C    basis set group =>   1
Atom   1O    basis set group =>   2
Atom   2O    basis set group =>   2
Atom   3O    basis set group =>   2
Atom   4Cs   basis set group =>   3
Atom   5H    basis set group =>   4

-------------------------------------
AUXILIARY/J BASIS SET IN INPUT FORMAT
-------------------------------------

 # Auxiliary/J basis set for element : H 
 NewAuxJGTO H 
 S 3 
   1      15.6752927000      0.1007184237
   2       3.6063578000      0.3404257499
   3       1.2080016000      0.6491996172
 S 1 
   1       0.4726794000      1.0000000000
 S 1 
   1       0.2018100000      1.0000000000
 P 2 
   1       2.0281365000      0.5596620919
   2       0.5358730000      0.5596620919
 D 1 
   1       2.2165124000      1.0000000000
  end;

 # Auxiliary/J basis set for element : C 
 NewAuxJGTO C 
 S 7 
   1    1861.0916331000      0.0134602335
   2     642.9939764000      0.0299160374
   3     235.1105725000      0.1008649584
   4      90.7028894000      0.2370970548
   5      36.7794552000      0.3924037254
   6      15.6046273000      0.3195862154
   7       6.8907294000      0.0530104441
 S 1 
   1       3.1478850000     -1.0000000000
 S 1 
   1       1.4777287000      1.0000000000
 S 1 
   1       0.7076466000      1.0000000000
 S 1 
   1       0.3430122000      1.0000000000
 S 1 
   1       0.1669453000      1.0000000000
 P 2 
   1      13.5472892000     -0.6769313712
   2       5.4669419000     -0.3779500978
 P 1 
   1       2.1751721000      1.0000000000
 P 1 
   1       0.8582194000      1.0000000000
 P 1 
   1       0.3376720000      1.0000000000
 D 2 
   1       5.9287253000     -0.3533329857
   2       1.9809209000     -0.7456525731
 D 1 
   1       0.8055417000     -1.0000000000
 D 1 
   1       0.3531244000     -1.0000000000
 F 2 
   1       1.6755626000      0.6311076882
   2       0.5997536000      0.4968166032
 G 1 
   1       1.0024600000     -1.0000000000
  end;

 # Auxiliary/J basis set for element : O 
 NewAuxJGTO O 
 S 7 
   1    2876.8216605000      0.0168151159
   2    1004.7443032000      0.0340137548
   3     369.7579954000      0.1194951309
   4     142.9442404000      0.2664627624
   5      57.8366425000      0.4202764046
   6      24.3864983000      0.2765077335
   7      10.6622662000      0.0057008815
 S 1 
   1       4.8070437000     -1.0000000000
 S 1 
   1       2.2210770000      1.0000000000
 S 1 
   1       1.0447795000      1.0000000000
 S 1 
   1       0.4968425000      1.0000000000
 S 1 
   1       0.2371384000      1.0000000000
 P 2 
   1      64.2613382000     -0.2731534179
   2      16.3006076000     -0.8168011598
 P 1 
   1       4.3550542000      1.0000000000
 P 1 
   1       1.2019554000      1.0000000000
 P 1 
   1       0.3354196000      1.0000000000
 D 2 
   1       9.2146611000     -0.4661230638
   2       2.8435251000     -0.6600908911
 D 1 
   1       0.9955759000     -1.0000000000
 D 1 
   1       0.3649441000     -1.0000000000
 F 2 
   1       2.6420115000      0.5931563945
   2       0.7345613000      0.5931563945
 G 1 
   1       1.3931000000     -1.0000000000
  end;

 # Auxiliary/J basis set for element : Cs
 NewAuxJGTO Cs
 S 4 
   1      16.5325652000     -0.0136244625
   2       9.7250381000      0.1172554704
   3       5.7344868000     -0.5380301216
   4       3.3315825000      1.4158270608
 S 1 
   1       1.9992444000     -1.0000000000
 S 1 
   1       1.1528537000     -1.0000000000
 S 1 
   1       0.6849307000      1.0000000000
 S 1 
   1       0.4029004000      1.0000000000
 S 1 
   1       0.2297292000      1.0000000000
 S 1 
   1       0.0489643000      1.0000000000
 S 1 
   1       0.0274712000     -1.0000000000
 P 2 
   1       2.5056618000      0.4165024277
   2       0.8678690000     -1.2542658586
 P 1 
   1       0.2966131000      1.0000000000
 P 1 
   1       0.1005740000     -1.0000000000
 P 1 
   1       0.0340126000     -1.0000000000
 D 2 
   1       1.1521088000      0.1915644495
   2       0.4611706000     -1.1250072497
 D 1 
   1       0.1881060000      1.0000000000
 D 1 
   1       0.0776108000      1.0000000000
 D 1 
   1       0.0321450000      1.0000000000
 F 3 
   1       0.6157554000     -1.0479005783
   2       0.2296413000      0.0762721937
   3       0.0867322000      0.1722007423
 G 1 
   1       0.2855416000     -1.0000000000
  end;

-------------------------
ECP PARAMETER INFORMATION
-------------------------

 Group 1, Type Cs ECP (replacing 46 core electrons, lmax=3)

Atom   4Cs   ECP group =>   1


-------------------------
ECP BASIS IN INPUT FORMAT
-------------------------

 NewECP Cs
   N_core 46
   lmax f
   s 3
     1       4.0797500000     84.5477300000  2
     2       2.4174060000     16.6541730000  2
     3       3.1232690000     28.8843090000  2
   p 3
     1       5.5140800000    157.0490590000  2
     2       2.1603160000     26.4233070000  2
     3       3.1232690000     28.8843090000  2
   d 3
     1       1.8074100000     13.1727530000  2
     2       0.8581820000      3.3428330000  2
     3       3.1232690000     28.8843090000  2
   f 1
     1       3.1232690000    -28.8843090000  2
 End




           ************************************************************
           *        Program running with 4 parallel MPI-processes     *
           *              working on a common directory               *
           ************************************************************
------------------------------------------------------------------------------
                           ORCA GTO INTEGRAL CALCULATION
                           -- RI-GTO INTEGRALS CHOSEN --
------------------------------------------------------------------------------
------------------------------------------------------------------------------
                   ___                                                        
                  /   \      - P O W E R E D   B Y -                         
                 /     \                                                     
                 |  |  |   _    _      __       _____    __    __             
                 |  |  |  | |  | |    /  \     |  _  \  |  |  /  |          
                  \  \/   | |  | |   /    \    | | | |  |  | /  /          
                 / \  \   | |__| |  /  /\  \   | |_| |  |  |/  /          
                |  |  |   |  __  | /  /__\  \  |    /   |      \           
                |  |  |   | |  | | |   __   |  |    \   |  |\   \          
                \     /   | |  | | |  |  |  |  | |\  \  |  | \   \       
                 \___/    |_|  |_| |__|  |__|  |_| \__\ |__|  \__/        
                                                                              
                      - O R C A' S   B I G   F R I E N D -                    
                                      &                                       
                       - I N T E G R A L  F E E D E R -                       
                                                                              
 v1 FN, 2020, v2 2021                                                         
------------------------------------------------------------------------------


Reading SHARK input file CsHCO3.SHARKINP.tmp ... ok
----------------------
SHARK INTEGRAL PACKAGE
----------------------

Number of atoms                             ...      6
Number of basis functions                   ...     97
Number of shells                            ...     43
Maximum angular momentum                    ...      2
Integral batch strategy                     ... SHARK/LIBINT Hybrid
RI-J (if used) integral strategy            ... SPLIT-RIJ (Revised 2003 algorithm where possible)
Printlevel                                  ...      1
Contraction scheme used                     ... SEGMENTED contraction
Coulomb Range Separation                    ... NOT USED
Exchange Range Separation                   ... NOT USED
Finite Nucleus Model                        ... NOT USED
Auxiliary Coulomb fitting basis             ... AVAILABLE
   # of basis functions in Aux-J            ...    263
   # of shells in Aux-J                     ...     83
   Maximum angular momentum in Aux-J        ...      4
Auxiliary J/K fitting basis                 ... NOT available
Auxiliary Correlation fitting basis         ... NOT available
Auxiliary 'external' fitting basis          ... NOT available
Integral threshold                          ...     2.500000e-11
Primitive cut-off                           ...     2.500000e-12
Primitive pair pre-selection threshold      ...     2.500000e-12

Calculating pre-screening integrals         ... done (  0.0 sec) Dimension = 43
Organizing shell pair data                  ... done (  0.0 sec)
Shell pair information
Total number of shell pairs                 ...       946
Shell pairs after pre-screening             ...       934
Total number of primitive shell pairs       ...      3837
Primitive shell pairs kept                  ...      3062
          la=0 lb=0:    243 shell pairs
          la=1 lb=0:    329 shell pairs
          la=1 lb=1:    120 shell pairs
          la=2 lb=0:    131 shell pairs
          la=2 lb=1:     90 shell pairs
          la=2 lb=2:     21 shell pairs

Calculating one electron integrals          ... done (  0.0 sec)
Calculating ECP integrals                   ... done (  0.0 sec)
Calculating RI/J V-Matrix + Cholesky decomp.... done (  0.1 sec)
Calculating Nuclear repulsion               ... done (  0.0 sec) ENN=    152.609256016178 Eh

SHARK setup successfully completed in   0.5 seconds

Maximum memory used throughout the entire GTOINT-calculation: 10.6 MB


           ************************************************************
           *        Program running with 4 parallel MPI-processes     *
           *              working on a common directory               *
           ************************************************************
-------------------------------------------------------------------------------
                                 ORCA SCF
-------------------------------------------------------------------------------

------------
SCF SETTINGS
------------
Hamiltonian:
 Density Functional     Method          .... DFT(GTOs)
 Exchange Functional    Exchange        .... PBE
   PBE kappa parameter   XKappa         ....  0.804000
   PBE mue parameter    XMuePBE         ....  0.219520
 Correlation Functional Correlation     .... PBE
   PBE beta parameter  CBetaPBE         ....  0.066725
 LDA part of GGA corr.  LDAOpt          .... PW91-LDA
 Gradients option       PostSCFGGA      .... off
 Hybrid DFT is turned on
   Fraction HF Exchange ScalHFX         ....  0.250000
   Scaling of DF-GGA-X  ScalDFX         ....  0.750000
   Scaling of DF-GGA-C  ScalDFC         ....  1.000000
   Scaling of DF-LDA-C  ScalLDAC        ....  1.000000
   Perturbative correction              ....  0.000000
   Density functional embedding theory  .... OFF
   NL short-range parameter             ....  6.900000
 RI-approximation to the Coulomb term is turned on
   Number of AuxJ basis functions       .... 263
   RIJ-COSX (HFX calculated with COS-X)).... on


General Settings:
 Integral files         IntName         .... CsHCO3
 Hartree-Fock type      HFTyp           .... RHF
 Total Charge           Charge          ....    0
 Multiplicity           Mult            ....    1
 Number of Electrons    NEL             ....   40
 Basis Dimension        Dim             ....   97
 Nuclear Repulsion      ENuc            ....    152.6092560162 Eh

Convergence Acceleration:
 DIIS                   CNVDIIS         .... on
   Start iteration      DIISMaxIt       ....    12
   Startup error        DIISStart       ....  0.200000
   # of expansion vecs  DIISMaxEq       ....     5
   Bias factor          DIISBfac        ....   1.050
   Max. coefficient     DIISMaxC        ....  10.000
 Trust-Rad. Augm. Hess. CNVTRAH         .... auto
   Auto Start mean grad. ratio tolernc. ....  1.125000
   Auto Start start iteration           ....    20
   Auto Start num. interpolation iter.  ....    10
   Max. Number of Micro iterations      ....    16
   Max. Number of Macro iterations      .... Maxiter - #DIIS iter
   Number of Davidson start vectors     ....     2
   Converg. threshold I  (grad. norm)   ....   1.000e-05
   Converg. threshold II (energy diff.) ....   1.000e-08
   Grad. Scal. Fac. for Micro threshold ....   0.100
   Minimum threshold for Micro iter.    ....   0.010
   NR start threshold (gradient norm)   ....   0.001
   Initial trust radius                 ....   0.400
   Minimum AH scaling param. (alpha)    ....   1.000
   Maximum AH scaling param. (alpha)    .... 1000.000
   Orbital update algorithm             .... Taylor
   White noise on init. David. guess    .... on
   Maximum white noise                  ....   0.010
   Quad. conv. algorithm                .... NR
 SOSCF                  CNVSOSCF        .... on
   Start iteration      SOSCFMaxIt      ....   150
   Startup grad/error   SOSCFStart      ....  0.003300
 Level Shifting         CNVShift        .... on
   Level shift para.    LevelShift      ....    0.2500
   Turn off err/grad.   ShiftErr        ....    0.0010
 Zerner damping         CNVZerner       .... off
 Static damping         CNVDamp         .... on
   Fraction old density DampFac         ....    0.7000
   Max. Damping (<1)    DampMax         ....    0.9800
   Min. Damping (>=0)   DampMin         ....    0.0000
   Turn off err/grad.   DampErr         ....    0.1000
 Fernandez-Rico         CNVRico         .... off

SCF Procedure:
 Maximum # iterations   MaxIter         ....   125
 SCF integral mode      SCFMode         .... Direct
   Integral package                     .... SHARK and LIBINT hybrid scheme
 Reset frequency        DirectResetFreq ....    20
 Integral Threshold     Thresh          ....  2.500e-11 Eh
 Primitive CutOff       TCut            ....  2.500e-12 Eh

Convergence Tolerance:
 Convergence Check Mode ConvCheckMode   .... Total+1el-Energy
 Convergence forced     ConvForced      .... 0
 Energy Change          TolE            ....  1.000e-08 Eh
 1-El. energy change                    ....  1.000e-05 Eh
 Orbital Gradient       TolG            ....  1.000e-05
 Orbital Rotation angle TolX            ....  1.000e-05
 DIIS Error             TolErr          ....  5.000e-07


Diagonalization of the overlap matrix:
Smallest eigenvalue                        ... 3.899e-03
Time for diagonalization                   ...    0.001 sec
Threshold for overlap eigenvalues          ... 1.000e-08
Number of eigenvalues below threshold      ... 0
Time for construction of square roots      ...    0.065 sec
Total time needed                          ...    0.066 sec

Time for model grid setup =    0.142 sec

------------------------------
INITIAL GUESS: MODEL POTENTIAL
------------------------------
Loading Hartree-Fock densities                     ... done
  calling /cvmfs/restricted.computecanada.ca/easybuild/software/2020/avx2/MPI/gcc10/openmpi4/orca/5.0.4/orca CsHCO3_atom55.inp > CsHCO3_atom55.out in order to generate an atomic fitting density for atom 4 (Cs with ECP) on-the-fly... 
    atom 4 (Cs), assumed electronic state with S=2: 1s2 2s2 2p6 3s2 3p6 4s2 3d10 4p6 5s2 4d10 5p6 6s1           ... done
Calculating cut-offs                               ... done
Initializing the effective Hamiltonian             ... done
Setting up the integral package (SHARK)            ... done
Starting the Coulomb interaction                   ... done (   0.0 sec)
Reading the grid                                   ... done
Mapping shells                                     ... done
Starting the XC term evaluation                    ... done (   0.0 sec)
  promolecular density results
     # of electrons  =     86.000507178
     EX              =   -220.964160726
     EC              =     -3.990800373
     EX+EC           =   -224.954961099
Transforming the Hamiltonian                       ... done (   0.0 sec)
Diagonalizing the Hamiltonian                      ... done (   0.0 sec)
Back transforming the eigenvectors                 ... done (   0.0 sec)
Now organizing SCF variables                       ... done
                      ------------------
                      INITIAL GUESS DONE (   2.5 sec)
                      ------------------
-------------------
DFT GRID GENERATION
-------------------

General Integration Accuracy     IntAcc      ... 4.388
Radial Grid Type                 RadialGrid  ... OptM3 with GC (2021)
Angular Grid (max. ang.)         AngularGrid ... 4 (Lebedev-302)
Angular grid pruning method      GridPruning ... 4 (adaptive)
Weight generation scheme         WeightScheme... Becke
Basis function cutoff            BFCut       ... 1.0000e-11
Integration weight cutoff        WCut        ... 1.0000e-14
Angular grids for H and He will be reduced by one unit
Partially contracted basis set               ... off
Rotationally invariant grid construction     ... off

Total number of grid points                  ...    40863
Total number of batches                      ...      642
Average number of points per batch           ...       63
Average number of grid points per atom       ...     6810
Time for grid setup =    0.343 sec

--------------------
COSX GRID GENERATION
--------------------

GRIDX 1
-------
General Integration Accuracy     IntAcc      ... 3.816
Radial Grid Type                 RadialGrid  ... OptM3 with GC (2021)
Angular Grid (max. ang.)         AngularGrid ... 1 (Lebedev-50)
Angular grid pruning method      GridPruning ... 4 (adaptive)
Weight generation scheme         WeightScheme... Becke
Basis function cutoff            BFCut       ... 1.0000e-11
Integration weight cutoff        WCut        ... 1.0000e-14
Angular grids for H and He will be reduced by one unit
Partially contracted basis set               ... on
Rotationally invariant grid construction     ... off

Total number of grid points                  ...     5177
Total number of batches                      ...       84
Average number of points per batch           ...       61
Average number of grid points per atom       ...      863
UseSFitting                                  ... on

GRIDX 2
-------
General Integration Accuracy     IntAcc      ... 4.020
Radial Grid Type                 RadialGrid  ... OptM3 with GC (2021)
Angular Grid (max. ang.)         AngularGrid ... 2 (Lebedev-110)
Angular grid pruning method      GridPruning ... 4 (adaptive)
Weight generation scheme         WeightScheme... Becke
Basis function cutoff            BFCut       ... 1.0000e-11
Integration weight cutoff        WCut        ... 1.0000e-14
Angular grids for H and He will be reduced by one unit
Partially contracted basis set               ... on
Rotationally invariant grid construction     ... off

Total number of grid points                  ...    14100
Total number of batches                      ...      222
Average number of points per batch           ...       63
Average number of grid points per atom       ...     2350
UseSFitting                                  ... on

GRIDX 3
-------
General Integration Accuracy     IntAcc      ... 4.338
Radial Grid Type                 RadialGrid  ... OptM3 with GC (2021)
Angular Grid (max. ang.)         AngularGrid ... 3 (Lebedev-194)
Angular grid pruning method      GridPruning ... 4 (adaptive)
Weight generation scheme         WeightScheme... Becke
Basis function cutoff            BFCut       ... 1.0000e-11
Integration weight cutoff        WCut        ... 1.0000e-14
Angular grids for H and He will be reduced by one unit
Partially contracted basis set               ... on
Rotationally invariant grid construction     ... off

Total number of grid points                  ...    29289
Total number of batches                      ...      462
Average number of points per batch           ...       63
Average number of grid points per atom       ...     4882
UseSFitting                                  ... on

Time for X-Grid setup             =    0.543 sec

--------------
SCF ITERATIONS
--------------
ITER       Energy         Delta-E        Max-DP      RMS-DP      [F,P]     Damp
               ***  Starting incremental Fock matrix formation  ***
  0   -283.9659993868   0.000000000000 0.21919868  0.00514784  0.3594446 0.7000
  1   -284.1157981634  -0.149798776599 0.17868659  0.00346641  0.2532994 0.7000
                               ***Turning on DIIS***
  2   -284.1618459698  -0.046047806435 0.12737544  0.00189404  0.1757176 0.7000
  3   -284.1923671602  -0.030521190383 0.08705691  0.00118161  0.1216776 0.7000
  4   -284.2154670139  -0.023099853731 0.19400095  0.00252272  0.0845706 0.0000
  5   -284.2686073261  -0.053140312174 0.00696446  0.00025862  0.0111571 0.0000
                      *** Initiating the SOSCF procedure ***
                           *** Shutting down DIIS ***
                      *** Re-Reading the Fockian *** 
                      *** Removing any level shift *** 
ITER      Energy       Delta-E        Grad      Rot      Max-DP    RMS-DP
  6   -284.26883544  -0.0002281116  0.000717  0.000717  0.002384  0.000102
               *** Restarting incremental Fock matrix formation ***
  7   -284.26886385  -0.0000284094  0.000656  0.003211  0.003768  0.000126
  8   -284.26885201   0.0000118373  0.001336  0.001246  0.002062  0.000063
  9   -284.26887312  -0.0000211134  0.000096  0.000192  0.000410  0.000019
 10   -284.26887303   0.0000000923  0.000119  0.000099  0.000235  0.000009
 11   -284.26887342  -0.0000003927  0.000013  0.000028  0.000069  0.000002
 12   -284.26887342   0.0000000005  0.000023  0.000021  0.000044  0.000001
                  ***Gradient check signals convergence***
              ***Rediagonalizing the Fockian in SOSCF/NRSCF***

               *****************************************************
               *                     SUCCESS                       *
               *           SCF CONVERGED AFTER  13 CYCLES          *
               *****************************************************

Old exchange energy                            =     -8.247972998 Eh
New exchange energy                            =     -8.247951593 Eh
Exchange energy change after final integration =      0.000021405 Eh
Total energy after final integration           =   -284.268852023 Eh
Final COS-X integration done in                =     0.502 sec

----------------
TOTAL SCF ENERGY
----------------

Total Energy       :         -284.26885202 Eh           -7735.34872 eV

Components:
Nuclear Repulsion  :          152.60925602 Eh            4152.70898 eV
Electronic Energy  :         -436.87810804 Eh          -11888.05770 eV
One Electron Energy:         -701.64526800 Eh          -19092.73840 eV
Two Electron Energy:          264.76715996 Eh            7204.68070 eV
Max COSX asymmetry :            0.00004052 Eh               0.00110 eV

Virial components:
Potential Energy   :         -552.04517272 Eh          -15021.91285 eV
Kinetic Energy     :          267.77632070 Eh            7286.56413 eV
Virial Ratio       :            2.06159070


DFT components:
N(Alpha)           :       20.000012481501 electrons
N(Beta)            :       20.000012481501 electrons
N(Total)           :       40.000024963003 electrons
E(X)               :      -24.807219559391 Eh       
E(C)               :       -1.342154112284 Eh       
E(XC)              :      -26.149373671675 Eh       
DFET-embed. en.    :        0.000000000000 Eh       

---------------
SCF CONVERGENCE
---------------

  Last Energy change         ...   -5.5748e-09  Tolerance :   1.0000e-08
  Last MAX-Density change    ...    4.4409e-15  Tolerance :   1.0000e-07
  Last RMS-Density change    ...    8.0271e-17  Tolerance :   5.0000e-09
  Last Orbital Gradient      ...    1.4624e-06  Tolerance :   1.0000e-05
  Last Orbital Rotation      ...    2.1651e-06  Tolerance :   1.0000e-05

             **** THE GBW FILE WAS UPDATED (CsHCO3.gbw) ****
             **** DENSITY CsHCO3.scfp WAS UPDATED ****
             **** ENERGY FILE WAS UPDATED (CsHCO3.en.tmp) ****
             **** THE GBW FILE WAS UPDATED (CsHCO3.gbw) ****
             **** DENSITY CsHCO3.scfp WAS UPDATED ****
----------------
ORBITAL ENERGIES
----------------

  NO   OCC          E(Eh)            E(eV) 
   0   2.0000     -19.256558      -523.9976 
   1   2.0000     -19.163868      -521.4753 
   2   2.0000     -19.115102      -520.1484 
   3   2.0000     -10.341450      -281.4052 
   4   2.0000      -1.110398       -30.2155 
   5   2.0000      -1.080578       -29.4040 
   6   2.0000      -0.993780       -27.0421 
   7   2.0000      -0.845905       -23.0182 
   8   2.0000      -0.571269       -15.5450 
   9   2.0000      -0.554252       -15.0820 
  10   2.0000      -0.553372       -15.0580 
  11   2.0000      -0.546476       -14.8704 
  12   2.0000      -0.466768       -12.7014 
  13   2.0000      -0.431282       -11.7358 
  14   2.0000      -0.430799       -11.7226 
  15   2.0000      -0.331872        -9.0307 
  16   2.0000      -0.298153        -8.1132 
  17   2.0000      -0.262780        -7.1506 
  18   2.0000      -0.197783        -5.3820 
  19   2.0000      -0.183467        -4.9924 
  20   0.0000      -0.040926        -1.1137 
  21   0.0000      -0.003901        -0.1062 
  22   0.0000      -0.001217        -0.0331 
  23   0.0000       0.002809         0.0764 
  24   0.0000       0.013255         0.3607 
  25   0.0000       0.013736         0.3738 
  26   0.0000       0.014417         0.3923 
  27   0.0000       0.019873         0.5408 
  28   0.0000       0.034390         0.9358 
  29   0.0000       0.035186         0.9575 
  30   0.0000       0.037501         1.0205 
  31   0.0000       0.048011         1.3065 
  32   0.0000       0.057956         1.5771 
  33   0.0000       0.079693         2.1686 
  34   0.0000       0.093861         2.5541 
  35   0.0000       0.155917         4.2427 
  36   0.0000       0.158140         4.3032 
  37   0.0000       0.159733         4.3466 
  38   0.0000       0.161514         4.3950 
  39   0.0000       0.174236         4.7412 
  40   0.0000       0.184429         5.0186 
  41   0.0000       0.202610         5.5133 
  42   0.0000       0.225823         6.1450 
  43   0.0000       0.238644         6.4938 
  44   0.0000       0.242647         6.6028 
  45   0.0000       0.249304         6.7839 
  46   0.0000       0.258850         7.0437 
  47   0.0000       0.273771         7.4497 
  48   0.0000       0.285371         7.7653 
  49   0.0000       0.289171         7.8687 
  50   0.0000       0.329915         8.9775 
  51   0.0000       0.334669         9.1068 
  52   0.0000       0.368230        10.0200 
  53   0.0000       0.377502        10.2724 
  54   0.0000       0.403738        10.9863 
  55   0.0000       0.464844        12.6491 
  56   0.0000       0.492532        13.4025 
  57   0.0000       0.537818        14.6348 
  58   0.0000       0.667635        18.1673 
  59   0.0000       0.786015        21.3885 
  60   0.0000       0.825902        22.4739 
  61   0.0000       0.878325        23.9004 
  62   0.0000       0.968925        26.3658 
  63   0.0000       1.139355        31.0034 
  64   0.0000       1.172069        31.8936 
  65   0.0000       1.183247        32.1978 
  66   0.0000       1.245531        33.8926 
  67   0.0000       1.264886        34.4193 
  68   0.0000       1.275027        34.6953 
  69   0.0000       1.345719        36.6189 
  70   0.0000       1.356403        36.9096 
  71   0.0000       1.372888        37.3582 
  72   0.0000       1.430075        38.9143 
  73   0.0000       1.474733        40.1295 
  74   0.0000       1.492986        40.6262 
  75   0.0000       1.632124        44.4123 
  76   0.0000       1.749772        47.6137 
  77   0.0000       1.768861        48.1332 
  78   0.0000       1.815001        49.3887 
  79   0.0000       1.828090        49.7449 
  80   0.0000       1.874073        50.9961 
  81   0.0000       1.922768        52.3212 
  82   0.0000       1.945426        52.9377 
  83   0.0000       1.974816        53.7375 
  84   0.0000       2.000513        54.4367 
  85   0.0000       2.083718        56.7009 
  86   0.0000       2.122028        57.7433 
  87   0.0000       2.188981        59.5652 
  88   0.0000       2.357855        64.1605 
  89   0.0000       2.526034        68.7369 
  90   0.0000       2.685870        73.0862 
  91   0.0000       2.774576        75.5000 
  92   0.0000       2.888718        78.6060 
  93   0.0000       3.021716        82.2251 
  94   0.0000       3.071585        83.5821 
  95   0.0000       3.164590        86.1129 
  96   0.0000      19.963863       543.2443 

                    ********************************
                    * MULLIKEN POPULATION ANALYSIS *
                    ********************************

-----------------------
MULLIKEN ATOMIC CHARGES
-----------------------
   0 C :    0.804394
   1 O :   -0.745927
   2 O :   -0.804395
   3 O :   -0.520970
   4 Cs:    0.858738
   5 H :    0.408161
Sum of atomic charges:    0.0000000

--------------------------------
MULLIKEN REDUCED ORBITAL CHARGES
--------------------------------
  0 C s       :     2.917194  s :     2.917194
      pz      :     0.670698  p :     2.124562
      px      :     0.719609
      py      :     0.734255
      dz2     :     0.037200  d :     0.153850
      dxz     :     0.023199
      dyz     :     0.039985
      dx2y2   :     0.026569
      dxy     :     0.026897
  1 O s       :     3.900361  s :     3.900361
      pz      :     1.693346  p :     4.823983
      px      :     1.701050
      py      :     1.429587
      dz2     :     0.003598  d :     0.021583
      dxz     :     0.001691
      dyz     :     0.006084
      dx2y2   :     0.004508
      dxy     :     0.005702
  2 O s       :     3.973276  s :     3.973276
      pz      :     1.589972  p :     4.816766
      px      :     1.732247
      py      :     1.494547
      dz2     :     0.001376  d :     0.014354
      dxz     :     0.001205
      dyz     :     0.005724
      dx2y2   :     0.002779
      dxy     :     0.003269
  3 O s       :     3.909628  s :     3.909628
      pz      :     1.486194  p :     4.581997
      px      :     1.617479
      py      :     1.478325
      dz2     :     0.008563  d :     0.029345
      dxz     :     0.005504
      dyz     :     0.004503
      dx2y2   :     0.007413
      dxy     :     0.003362
  4 Css       :     2.027022  s :     2.027022
      pz      :     2.005037  p :     6.009417
      px      :     2.001893
      py      :     2.002488
      dz2     :     0.049234  d :     0.104823
      dxz     :     0.019932
      dyz     :     0.021753
      dx2y2   :     0.008094
      dxy     :     0.005810
  5 H s       :     0.591839  s :     0.591839


                     *******************************
                     * LOEWDIN POPULATION ANALYSIS *
                     *******************************

----------------------
LOEWDIN ATOMIC CHARGES
----------------------
   0 C :    0.461148
   1 O :   -0.620257
   2 O :   -0.730137
   3 O :   -0.412560
   4 Cs:    0.866405
   5 H :    0.435401

-------------------------------
LOEWDIN REDUCED ORBITAL CHARGES
-------------------------------
  0 C s       :     2.701178  s :     2.701178
      pz      :     0.842274  p :     2.503381
      px      :     0.749163
      py      :     0.911945
      dz2     :     0.078042  d :     0.334293
      dxz     :     0.054204
      dyz     :     0.091060
      dx2y2   :     0.058197
      dxy     :     0.052789
  1 O s       :     3.584040  s :     3.584040
      pz      :     1.745078  p :     4.986821
      px      :     1.681091
      py      :     1.560652
      dz2     :     0.007436  d :     0.049397
      dxz     :     0.002899
      dyz     :     0.016492
      dx2y2   :     0.013521
      dxy     :     0.009049
  2 O s       :     3.746183  s :     3.746183
      pz      :     1.641545  p :     4.956635
      px      :     1.739211
      py      :     1.575878
      dz2     :     0.002081  d :     0.027318
      dxz     :     0.002148
      dyz     :     0.011899
      dx2y2   :     0.005883
      dxy     :     0.005308
  3 O s       :     3.607545  s :     3.607545
      pz      :     1.572071  p :     4.747201
      px      :     1.651048
      py      :     1.524083
      dz2     :     0.015844  d :     0.057813
      dxz     :     0.014833
      dyz     :     0.010459
      dx2y2   :     0.010259
      dxy     :     0.006418
  4 Css       :     1.974122  s :     1.974122
      pz      :     1.980153  p :     5.972381
      px      :     1.995878
      py      :     1.996350
      dz2     :     0.088837  d :     0.187092
      dxz     :     0.037149
      dyz     :     0.036722
      dx2y2   :     0.015227
      dxy     :     0.009158
  5 H s       :     0.564599  s :     0.564599


                      *****************************
                      * MAYER POPULATION ANALYSIS *
                      *****************************

  NA   - Mulliken gross atomic population
  ZA   - Total nuclear charge
  QA   - Mulliken gross atomic charge
  VA   - Mayer's total valence
  BVA  - Mayer's bonded valence
  FA   - Mayer's free valence

  ATOM       NA         ZA         QA         VA         BVA        FA
  0 C      5.1956     6.0000     0.8044     3.7747     3.7747     0.0000
  1 O      8.7459     8.0000    -0.7459     1.5883     1.5883    -0.0000
  2 O      8.8044     8.0000    -0.8044     1.4546     1.4546     0.0000
  3 O      8.5210     8.0000    -0.5210     1.7607     1.7607     0.0000
  4 Cs     8.1413     9.0000     0.8587     0.2510     0.2510     0.0000
  5 H      0.5918     1.0000     0.4082     0.8158     0.8158    -0.0000

  Mayer bond orders larger than 0.100000
B(  0-C ,  1-O ) :   1.4147 B(  0-C ,  2-O ) :   1.3296 B(  0-C ,  3-O ) :   1.0277 
B(  1-O ,  4-Cs) :   0.1242 B(  3-O ,  5-H ) :   0.7232 

-------
TIMINGS
-------

Total SCF time: 0 days 0 hours 0 min 13 sec 

Total time                  ....      13.454 sec
Sum of individual times     ....      12.198 sec  ( 90.7%)

Fock matrix formation       ....       7.993 sec  ( 59.4%)
  Split-RI-J                ....       0.334 sec  (  4.2% of F)
  Chain of spheres X        ....       2.951 sec  ( 36.9% of F)
  XC integration            ....       3.756 sec  ( 47.0% of F)
    Basis function eval.    ....       0.220 sec  (  5.9% of XC)
    Density eval.           ....       0.692 sec  ( 18.4% of XC)
    XC-Functional eval.     ....       0.459 sec  ( 12.2% of XC)
    XC-Potential eval.      ....       0.187 sec  (  5.0% of XC)
Diagonalization             ....       0.026 sec  (  0.2%)
Density matrix formation    ....       0.002 sec  (  0.0%)
Population analysis         ....       0.033 sec  (  0.2%)
Initial guess               ....       2.391 sec  ( 17.8%)
Orbital Transformation      ....       0.000 sec  (  0.0%)
Orbital Orthonormalization  ....       0.000 sec  (  0.0%)
DIIS solution               ....       0.022 sec  (  0.2%)
SOSCF solution              ....       0.704 sec  (  5.2%)
Grid generation             ....       1.027 sec  (  7.6%)

Maximum memory used throughout the entire SCF-calculation: 47.1 MB


-------------------------------------------------------------------------------
                          DFT DISPERSION CORRECTION                            
                                                                               
                              DFTD3 V3.1  Rev 1                                
                          USING Becke-Johnson damping                          
-------------------------------------------------------------------------------
The PBE0 functional is recognized
Active option DFTDOPT                   ...         4   

molecular C6(AA) [au] = 1626.127621 


            DFT-D V3
 parameters
 s6 scaling factor         :     1.0000 
 a1 scaling factor         :     0.4145 
 s8 scaling factor         :     1.2177 
 a2 scaling factor         :     4.8593 
 ad hoc parameters k1-k3   :    16.0000     1.3333    -4.0000 

 Edisp/kcal,au: -1.873693335529  -0.002985920075 
 E6   /kcal   :  -0.988111686 
 E8   /kcal   :  -0.885581649 
 % E8         :  47.263958979 

-------------------------   ----------------
Dispersion correction           -0.002985920
-------------------------   ----------------


-------------------------   --------------------
FINAL SINGLE POINT ENERGY      -284.271837943327
-------------------------   --------------------



           ************************************************************
           *        Program running with 4 parallel MPI-processes     *
           *              working on a common directory               *
           ************************************************************
------------------------------------------------------------------------------
                         ORCA SCF GRADIENT CALCULATION
------------------------------------------------------------------------------

 ... reading COSX grid (gridx3)
Gradient of the Kohn-Sham DFT energy:
Kohn-Sham wavefunction type      ... RKS
Hartree-Fock exchange scaling    ...    0.250
Number of operators              ...    1
Number of atoms                  ...    6
Basis set dimensions             ...   97
Integral neglect threshold       ... 2.5e-11
Integral primitive cutoff        ... 2.5e-12
SHARK Integral package           ... ON

Nuc. rep. gradient       (SHARK) ... done (  0.0 sec)
HCore & Overlap gradient (SHARK) ... done (  0.0 sec)
ECP gradient             (SHARK) ... done (  0.1 sec)
RI-J gradient            (SHARK) ... done (  0.1 sec)
COSX-gradient                    ... done (  0.6 sec)
Exchange-correlation gradient    ... done
Dispersion correction            ... done

------------------
CARTESIAN GRADIENT
------------------

   1   C   :    0.037373961    0.111778857   -0.148981482
   2   O   :    0.005312534   -0.039336167    0.014267538
   3   O   :   -0.030739340   -0.094978385    0.083260844
   4   O   :   -0.037938838   -0.079432749    0.066637597
   5   Cs  :    0.000579631    0.009007576    0.002511458
   6   H   :    0.025320104    0.092719849   -0.018193355

Difference to translation invariance:
           :   -0.0000919478   -0.0002410194   -0.0004973992

Difference to rotation invariance:
           :   -0.0056295546   -0.0057229672    0.0034979482

Norm of the cartesian gradient     ...    0.2767859084
RMS gradient                       ...    0.0652390642
MAX gradient                       ...    0.1489814825

-------
TIMINGS
-------

Total SCF gradient time            ...        1.219 sec

One electron gradient       ....       0.120 sec  (  9.8%)
RI-J Coulomb gradient       ....       0.098 sec  (  8.0%)
COSX gradient               ....       0.602 sec  ( 49.4%)
XC gradient                 ....       0.224 sec  ( 18.4%)

Maximum memory used throughout the entire SCFGRAD-calculation: 36.1 MB
------------------------------------------------------------------------------
                         ORCA GEOMETRY RELAXATION STEP
------------------------------------------------------------------------------

Reading the OPT-File                    .... done
Getting information on internals        .... done
Copying old internal coords+grads       .... done
Making the new internal coordinates     .... (new redundants).... done
Validating the new internal coordinates .... (new redundants).... done
Calculating the B-matrix                .... done
Calculating the G,G- and P matrices     .... done
Transforming gradient to internals      .... done
Projecting the internal gradient        .... done
Number of atoms                         ....   6
Number of internal coordinates          ....  21
Current Energy                          ....  -284.271837943 Eh
Current gradient norm                   ....     0.276785908 Eh/bohr
Maximum allowed component of the step   ....  0.300
Current trust radius                    ....  0.300
Evaluating the initial hessian          ....  (Almloef) done
Projecting the Hessian                  .... done
Forming the augmented Hessian           .... done
Diagonalizing the augmented Hessian     .... done
Last element of RFO vector              ....  0.898779448
Lowest eigenvalues of augmented Hessian:
 -0.079825309  0.007813936  0.039291189  0.047592961  0.054557160
Length of the computed step             ....  0.487773812
Warning: the length of the step is outside the trust region - taking restricted step instead
The input lambda is                     ....    -0.079825
   iter:   1  x=   -0.163137  g=    1.775534 f(x)=     0.147923
   iter:   2  x=   -0.239166  g=    0.718218 f(x)=     0.054605
   iter:   3  x=   -0.271297  g=    0.411923 f(x)=     0.013235
   iter:   4  x=   -0.274978  g=    0.337980 f(x)=     0.001244
   iter:   5  x=   -0.275018  g=    0.330750 f(x)=     0.000013
   iter:   6  x=   -0.275018  g=    0.330671 f(x)=     0.000000
   iter:   7  x=   -0.275018  g=    0.330671 f(x)=     0.000000
The output lambda is                    ....    -0.275018 (7 iterations)
The final length of the internal step   ....  0.300000000
Converting the step to cartesian space:
 Initial RMS(Int)=    0.0654653671
Transforming coordinates:
 Iter   0:  RMS(Cart)=    0.0708168518 RMS(Int)=    0.0652657110
 Iter   1:  RMS(Cart)=    0.0014051040 RMS(Int)=    0.0016002763
 Iter   2:  RMS(Cart)=    0.0001033930 RMS(Int)=    0.0000660533
 Iter   3:  RMS(Cart)=    0.0000098154 RMS(Int)=    0.0000055898
 Iter   4:  RMS(Cart)=    0.0000008485 RMS(Int)=    0.0000005543
 Iter   5:  RMS(Cart)=    0.0000000711 RMS(Int)=    0.0000000551
done
Storing new coordinates                 .... done

                                .--------------------.
          ----------------------|Geometry convergence|-------------------------
          Item                value                   Tolerance       Converged
          ---------------------------------------------------------------------
          RMS gradient        0.0386851129            0.0001000000      NO
          MAX gradient        0.1256576513            0.0003000000      NO
          RMS step            0.0654653671            0.0020000000      NO
          MAX step            0.1962363989            0.0040000000      NO
          ........................................................
          Max(Bonds)      0.1038      Max(Angles)    2.74
          Max(Dihed)        2.33      Max(Improp)    0.00
          ---------------------------------------------------------------------

The optimization has not yet converged - more geometry cycles are needed


    ---------------------------------------------------------------------------
                         Redundant Internal Coordinates
                            (Angstroem and degrees)

        Definition                    Value    dE/dq     Step     New-Value
    ----------------------------------------------------------------------------
     1. B(O   1,C   0)                1.2389 -0.024705  0.0108    1.2497   
     2. B(O   2,C   0)                1.4936  0.125658 -0.1016    1.3920   
     3. B(O   3,C   0)                1.2805 -0.049139  0.0234    1.3039   
     4. B(Cs  4,O   2)                3.4064  0.005538 -0.0127    3.3938   
     5. B(Cs  4,O   1)                2.6766  0.000381  0.0017    2.6783   
     6. B(H   5,O   3)                1.1896  0.097868 -0.1038    1.0857   
     7. A(O   2,C   0,O   3)          120.80  0.024844   -1.96    118.84   
     8. A(O   1,C   0,O   2)          115.82 -0.030024    2.74    118.56   
     9. A(O   1,C   0,O   3)          121.04  0.000001    0.15    121.19   
    10. A(C   0,O   1,Cs  4)          121.09  0.026711   -2.46    118.63   
    11. A(C   0,O   2,Cs  4)           80.32 -0.005632    0.52     80.84   
    12. A(C   0,O   3,H   5)          101.25 -0.002964    0.28    101.52   
    13. A(O   1,Cs  4,O   2)           42.75  0.009085   -0.82     41.93   
    14. D(Cs  4,O   1,C   0,O   2)      1.36 -0.007606    1.48      2.84   
    15. D(Cs  4,O   1,C   0,O   3)   -161.39  0.006798   -1.51   -162.89   
    16. D(Cs  4,O   2,C   0,O   3)    161.86 -0.013502    2.33    164.19   
    17. D(Cs  4,O   2,C   0,O   1)     -0.93  0.005449   -1.04     -1.96   
    18. D(H   5,O   3,C   0,O   2)   -170.43  0.012550   -2.01   -172.44   
    19. D(H   5,O   3,C   0,O   1)     -8.54 -0.012210    1.95     -6.59   
    20. D(O   2,Cs  4,O   1,C   0)     -0.79  0.003754   -0.80     -1.59   
    21. D(O   1,Cs  4,O   2,C   0)      0.57 -0.003403    0.64      1.21   
    ----------------------------------------------------------------------------

         *************************************************************
         *                GEOMETRY OPTIMIZATION CYCLE   2            *
         *************************************************************
---------------------------------
CARTESIAN COORDINATES (ANGSTROEM)
---------------------------------
  C     -5.204937    4.500983   -0.216933
  O     -5.252860    5.612597    0.352289
  O     -5.609269    3.372967    0.491422
  O     -4.543327    4.340393   -1.328948
  Cs    -6.017237    5.710613    2.917469
  H     -4.257050    5.361807   -1.560448

----------------------------
CARTESIAN COORDINATES (A.U.)
----------------------------
  NO LB      ZA    FRAG     MASS         X           Y           Z
   0 C     6.0000    0    12.011   -9.835906    8.505625   -0.409945
   1 O     8.0000    0    15.999   -9.926467   10.606272    0.665729
   2 O     8.0000    0    15.999  -10.599983    6.373984    0.928653
   3 O     8.0000    0    15.999   -8.585643    8.202155   -2.511348
   4 Cs    9.0000*   0   132.905  -11.370930   10.791494    5.513217
   5 H     1.0000    0     1.008   -8.044658   10.132346   -2.948819
* core charge reduced due to ECP

--------------------------------
INTERNAL COORDINATES (ANGSTROEM)
--------------------------------
 C      0   0   0     0.000000000000     0.00000000     0.00000000
 O      1   0   0     1.249798708680     0.00000000     0.00000000
 O      1   2   0     1.392002818840   118.54520175     0.00000000
 O      1   2   3     1.303876740792   121.16034741   194.16816924
 Cs     2   1   3     2.678437543078   118.66473040     2.86789867
 H      4   1   2     1.085740046021   101.52341938   353.38081497

---------------------------
INTERNAL COORDINATES (A.U.)
---------------------------
 C      0   0   0     0.000000000000     0.00000000     0.00000000
 O      1   0   0     2.361777281933     0.00000000     0.00000000
 O      1   2   0     2.630504105254   118.54520175     0.00000000
 O      1   2   3     2.463969952486   121.16034741   194.16816924
 Cs     2   1   3     5.061513423230   118.66473040     2.86789867
 H      4   1   2     2.051751339611   101.52341938   353.38081497



           ************************************************************
           *        Program running with 4 parallel MPI-processes     *
           *              working on a common directory               *
           ************************************************************
------------------------------------------------------------------------------
                   ___                                                        
                  /   \      - P O W E R E D   B Y -                         
                 /     \                                                     
                 |  |  |   _    _      __       _____    __    __             
                 |  |  |  | |  | |    /  \     |  _  \  |  |  /  |          
                  \  \/   | |  | |   /    \    | | | |  |  | /  /          
                 / \  \   | |__| |  /  /\  \   | |_| |  |  |/  /          
                |  |  |   |  __  | /  /__\  \  |    /   |      \           
                |  |  |   | |  | | |   __   |  |    \   |  |\   \          
                \     /   | |  | | |  |  |  |  | |\  \  |  | \   \       
                 \___/    |_|  |_| |__|  |__|  |_| \__\ |__|  \__/        
                                                                              
                      - O R C A' S   B I G   F R I E N D -                    
                                      &                                       
                       - I N T E G R A L  F E E D E R -                       
                                                                              
 v1 FN, 2020, v2 2021                                                         
------------------------------------------------------------------------------


Reading SHARK input file CsHCO3.SHARKINP.tmp ... ok
----------------------
SHARK INTEGRAL PACKAGE
----------------------

Number of atoms                             ...      6
Number of basis functions                   ...     97
Number of shells                            ...     43
Maximum angular momentum                    ...      2
Integral batch strategy                     ... SHARK/LIBINT Hybrid
RI-J (if used) integral strategy            ... SPLIT-RIJ (Revised 2003 algorithm where possible)
Printlevel                                  ...      1
Contraction scheme used                     ... SEGMENTED contraction
Coulomb Range Separation                    ... NOT USED
Exchange Range Separation                   ... NOT USED
Finite Nucleus Model                        ... NOT USED
Auxiliary Coulomb fitting basis             ... AVAILABLE
   # of basis functions in Aux-J            ...    263
   # of shells in Aux-J                     ...     83
   Maximum angular momentum in Aux-J        ...      4
Auxiliary J/K fitting basis                 ... NOT available
Auxiliary Correlation fitting basis         ... NOT available
Auxiliary 'external' fitting basis          ... NOT available
Integral threshold                          ...     2.500000e-11
Primitive cut-off                           ...     2.500000e-12
Primitive pair pre-selection threshold      ...     2.500000e-12

Calculating pre-screening integrals         ... done (  0.0 sec) Dimension = 43
Organizing shell pair data                  ... done (  0.0 sec)
Shell pair information
Total number of shell pairs                 ...       946
Shell pairs after pre-screening             ...       934
Total number of primitive shell pairs       ...      3837
Primitive shell pairs kept                  ...      3066
          la=0 lb=0:    243 shell pairs
          la=1 lb=0:    329 shell pairs
          la=1 lb=1:    120 shell pairs
          la=2 lb=0:    131 shell pairs
          la=2 lb=1:     90 shell pairs
          la=2 lb=2:     21 shell pairs

Calculating one electron integrals          ... done (  0.0 sec)
Calculating ECP integrals                   ... done (  0.0 sec)
Calculating RI/J V-Matrix + Cholesky decomp.... done (  0.4 sec)
Calculating Nuclear repulsion               ... done (  0.0 sec) ENN=    154.489144474759 Eh

SHARK setup successfully completed in   0.9 seconds

Maximum memory used throughout the entire GTOINT-calculation: 10.6 MB


           ************************************************************
           *        Program running with 4 parallel MPI-processes     *
           *              working on a common directory               *
           ************************************************************

Diagonalization of the overlap matrix:
Smallest eigenvalue                        ... 3.903e-03
Time for diagonalization                   ...    0.001 sec
Threshold for overlap eigenvalues          ... 1.000e-08
Number of eigenvalues below threshold      ... 0
Time for construction of square roots      ...    0.020 sec
Total time needed                          ...    0.022 sec

-------------------
DFT GRID GENERATION
-------------------

General Integration Accuracy     IntAcc      ... 4.388
Radial Grid Type                 RadialGrid  ... OptM3 with GC (2021)
Angular Grid (max. ang.)         AngularGrid ... 4 (Lebedev-302)
Angular grid pruning method      GridPruning ... 4 (adaptive)
Weight generation scheme         WeightScheme... Becke
Basis function cutoff            BFCut       ... 1.0000e-11
Integration weight cutoff        WCut        ... 1.0000e-14
Angular grids for H and He will be reduced by one unit
Partially contracted basis set               ... off
Rotationally invariant grid construction     ... off

Total number of grid points                  ...    40845
Total number of batches                      ...      641
Average number of points per batch           ...       63
Average number of grid points per atom       ...     6808
Time for grid setup =    0.321 sec

--------------------
COSX GRID GENERATION
--------------------

GRIDX 1
-------
General Integration Accuracy     IntAcc      ... 3.816
Radial Grid Type                 RadialGrid  ... OptM3 with GC (2021)
Angular Grid (max. ang.)         AngularGrid ... 1 (Lebedev-50)
Angular grid pruning method      GridPruning ... 4 (adaptive)
Weight generation scheme         WeightScheme... Becke
Basis function cutoff            BFCut       ... 1.0000e-11
Integration weight cutoff        WCut        ... 1.0000e-14
Angular grids for H and He will be reduced by one unit
Partially contracted basis set               ... on
Rotationally invariant grid construction     ... off

Total number of grid points                  ...     5173
Total number of batches                      ...       85
Average number of points per batch           ...       60
Average number of grid points per atom       ...      862
UseSFitting                                  ... on

GRIDX 2
-------
General Integration Accuracy     IntAcc      ... 4.020
Radial Grid Type                 RadialGrid  ... OptM3 with GC (2021)
Angular Grid (max. ang.)         AngularGrid ... 2 (Lebedev-110)
Angular grid pruning method      GridPruning ... 4 (adaptive)
Weight generation scheme         WeightScheme... Becke
Basis function cutoff            BFCut       ... 1.0000e-11
Integration weight cutoff        WCut        ... 1.0000e-14
Angular grids for H and He will be reduced by one unit
Partially contracted basis set               ... on
Rotationally invariant grid construction     ... off

Total number of grid points                  ...    14099
Total number of batches                      ...      224
Average number of points per batch           ...       62
Average number of grid points per atom       ...     2350
UseSFitting                                  ... on

GRIDX 3
-------
General Integration Accuracy     IntAcc      ... 4.338
Radial Grid Type                 RadialGrid  ... OptM3 with GC (2021)
Angular Grid (max. ang.)         AngularGrid ... 3 (Lebedev-194)
Angular grid pruning method      GridPruning ... 4 (adaptive)
Weight generation scheme         WeightScheme... Becke
Basis function cutoff            BFCut       ... 1.0000e-11
Integration weight cutoff        WCut        ... 1.0000e-14
Angular grids for H and He will be reduced by one unit
Partially contracted basis set               ... on
Rotationally invariant grid construction     ... off

Total number of grid points                  ...    29261
Total number of batches                      ...      460
Average number of points per batch           ...       63
Average number of grid points per atom       ...     4877
UseSFitting                                  ... on

Time for X-Grid setup             =    1.131 sec

--------------
SCF ITERATIONS
--------------
ITER       Energy         Delta-E        Max-DP      RMS-DP      [F,P]     Damp
               ***  Starting incremental Fock matrix formation  ***
  0   -284.3071616205   0.000000000000 0.00652151  0.00044387  0.0273099 0.7000
  1   -284.3095290366  -0.002367416117 0.00630520  0.00038454  0.0205227 0.7000
                               ***Turning on DIIS***
  2   -284.3113265396  -0.001797502960 0.01794974  0.00098800  0.0148202 0.0000
  3   -284.3158677555  -0.004541215933 0.00334793  0.00018083  0.0033381 0.0000
                      *** Initiating the SOSCF procedure ***
                           *** Shutting down DIIS ***
                      *** Re-Reading the Fockian *** 
                      *** Removing any level shift *** 
ITER      Energy       Delta-E        Grad      Rot      Max-DP    RMS-DP
  4   -284.31597465  -0.0001068912  0.000747  0.000747  0.002420  0.000097
               *** Restarting incremental Fock matrix formation ***
  5   -284.31600450  -0.0000298561  0.000700  0.002246  0.001752  0.000082
  6   -284.31600576  -0.0000012603  0.000686  0.000589  0.000994  0.000051
  7   -284.31601341  -0.0000076443  0.000162  0.000228  0.000428  0.000020
  8   -284.31601334   0.0000000654  0.000204  0.000186  0.000363  0.000011
  9   -284.31601392  -0.0000005754  0.000044  0.000105  0.000095  0.000006
 10   -284.31601392   0.0000000018  0.000038  0.000035  0.000069  0.000003
 11   -284.31601395  -0.0000000341  0.000009  0.000024  0.000024  0.000001
 12   -284.31601395   0.0000000036  0.000004  0.000010  0.000010  0.000001
                  ***Gradient check signals convergence***
              ***Rediagonalizing the Fockian in SOSCF/NRSCF***

               *****************************************************
               *                     SUCCESS                       *
               *           SCF CONVERGED AFTER  13 CYCLES          *
               *****************************************************

Old exchange energy                            =     -8.268185429 Eh
New exchange energy                            =     -8.268130308 Eh
Exchange energy change after final integration =      0.000055121 Eh
Total energy after final integration           =   -284.315958827 Eh
Final COS-X integration done in                =     0.505 sec
Total Energy       :         -284.31595883 Eh           -7736.63056 eV
  Last Energy change         ...   -2.2932e-09  Tolerance :   1.0000e-08
  Last MAX-Density change    ...    3.9968e-15  Tolerance :   1.0000e-07
             **** THE GBW FILE WAS UPDATED (CsHCO3.gbw) ****
             **** DENSITY CsHCO3.scfp WAS UPDATED ****
             **** ENERGY FILE WAS UPDATED (CsHCO3.en.tmp) ****
             **** THE GBW FILE WAS UPDATED (CsHCO3.gbw) ****
             **** DENSITY CsHCO3.scfp WAS UPDATED ****
[...]

GRIDX 2
-------
General Integration Accuracy     IntAcc      ... 4.020
Radial Grid Type                 RadialGrid  ... OptM3 with GC (2021)
Angular Grid (max. ang.)         AngularGrid ... 2 (Lebedev-110)
Angular grid pruning method      GridPruning ... 4 (adaptive)
Weight generation scheme         WeightScheme... Becke
Basis function cutoff            BFCut       ... 1.0000e-11
Integration weight cutoff        WCut        ... 1.0000e-14
Angular grids for H and He will be reduced by one unit
Partially contracted basis set               ... on
Rotationally invariant grid construction     ... off

Total number of grid points                  ...    14058
Total number of batches                      ...      222
Average number of points per batch           ...       63
Average number of grid points per atom       ...     2343
UseSFitting                                  ... on

GRIDX 3
-------
General Integration Accuracy     IntAcc      ... 4.338
Radial Grid Type                 RadialGrid  ... OptM3 with GC (2021)
Angular Grid (max. ang.)         AngularGrid ... 3 (Lebedev-194)
Angular grid pruning method      GridPruning ... 4 (adaptive)
Weight generation scheme         WeightScheme... Becke
Basis function cutoff            BFCut       ... 1.0000e-11
Integration weight cutoff        WCut        ... 1.0000e-14
Angular grids for H and He will be reduced by one unit
Partially contracted basis set               ... on
Rotationally invariant grid construction     ... off

Total number of grid points                  ...    29266
Total number of batches                      ...      461
Average number of points per batch           ...       63
Average number of grid points per atom       ...     4878
UseSFitting                                  ... on

Time for X-Grid setup             =    0.830 sec

--------------
SCF ITERATIONS
--------------
ITER       Energy         Delta-E        Max-DP      RMS-DP      [F,P]     Damp
               ***  Starting incremental Fock matrix formation  ***
                      *** Initiating the SOSCF procedure ***
                      *** Re-Reading the Fockian *** 
                      *** Removing any level shift *** 
ITER      Energy       Delta-E        Grad      Rot      Max-DP    RMS-DP
  0   -284.36225941 -284.3622594093  0.000038  0.000038  0.000082  0.000004
               *** Restarting incremental Fock matrix formation ***
  1   -284.36225947  -0.0000000586  0.000012  0.000031  0.000044  0.000002
  2   -284.36225948  -0.0000000099  0.000023  0.000028  0.000039  0.000001
  3   -284.36225948   0.0000000011  0.000007  0.000009  0.000014  0.000001
                  ***Gradient check signals convergence***
              ***Rediagonalizing the Fockian in SOSCF/NRSCF***

               *****************************************************
               *                     SUCCESS                       *
               *           SCF CONVERGED AFTER   4 CYCLES          *
               *****************************************************

Old exchange energy                            =     -8.298877253 Eh
New exchange energy                            =     -8.298984561 Eh
Exchange energy change after final integration =     -0.000107308 Eh
Total energy after final integration           =   -284.362366787 Eh
Final COS-X integration done in                =     0.510 sec

----------------
TOTAL SCF ENERGY
----------------

Total Energy       :         -284.36236679 Eh           -7737.89339 eV

Components:
Nuclear Repulsion  :          159.27715889 Eh            4334.15184 eV
Electronic Energy  :         -443.63952567 Eh          -12072.04522 eV
One Electron Energy:         -714.83655648 Eh          -19451.69161 eV
Two Electron Energy:          271.19703081 Eh            7379.64638 eV
Max COSX asymmetry :            0.00004794 Eh               0.00130 eV

Virial components:
Potential Energy   :         -552.66375878 Eh          -15038.74543 eV
Kinetic Energy     :          268.30139199 Eh            7300.85204 eV
Virial Ratio       :            2.05986169


DFT components:
N(Alpha)           :       19.999854740491 electrons
N(Beta)            :       19.999854740491 electrons
N(Total)           :       39.999709480982 electrons
E(X)               :      -24.925977316183 Eh       
E(C)               :       -1.355886335617 Eh       
E(XC)              :      -26.281863651801 Eh       
DFET-embed. en.    :        0.000000000000 Eh       

---------------
SCF CONVERGENCE
---------------

  Last Energy change         ...   -2.9301e-09  Tolerance :   1.0000e-08
  Last MAX-Density change    ...    3.5527e-15  Tolerance :   1.0000e-07
  Last RMS-Density change    ...    7.2241e-17  Tolerance :   5.0000e-09
  Last Orbital Gradient      ...    2.2697e-06  Tolerance :   1.0000e-05
  Last Orbital Rotation      ...    3.8337e-06  Tolerance :   1.0000e-05

             **** THE GBW FILE WAS UPDATED (CsHCO3.gbw) ****
             **** DENSITY CsHCO3.scfp WAS UPDATED ****
             **** ENERGY FILE WAS UPDATED (CsHCO3.en.tmp) ****
             **** THE GBW FILE WAS UPDATED (CsHCO3.gbw) ****
             **** DENSITY CsHCO3.scfp WAS UPDATED ****
----------------
ORBITAL ENERGIES
----------------

  NO   OCC          E(Eh)            E(eV) 
   0   2.0000     -19.209367      -522.7134 
   1   2.0000     -19.149683      -521.0894 
   2   2.0000     -19.146172      -520.9938 
   3   2.0000     -10.335243      -281.2363 
   4   2.0000      -1.094098       -29.7719 
   5   2.0000      -1.071703       -29.1625 
   6   2.0000      -0.988361       -26.8947 
   7   2.0000      -0.951994       -25.9051 
   8   2.0000      -0.577239       -15.7075 
   9   2.0000      -0.547205       -14.8902 
  10   2.0000      -0.544618       -14.8198 
  11   2.0000      -0.533748       -14.5240 
  12   2.0000      -0.456003       -12.4085 
  13   2.0000      -0.428500       -11.6601 
  14   2.0000      -0.422731       -11.5031 
  15   2.0000      -0.367495       -10.0000 
  16   2.0000      -0.287383        -7.8201 
  17   2.0000      -0.266576        -7.2539 
  18   2.0000      -0.248460        -6.7609 
  19   2.0000      -0.230008        -6.2588 
  20   0.0000      -0.036284        -0.9873 
  21   0.0000       0.000447         0.0122 
  22   0.0000       0.001787         0.0486 
  23   0.0000       0.005057         0.1376 
  24   0.0000       0.014687         0.3996 
  25   0.0000       0.015867         0.4318 
  26   0.0000       0.018410         0.5010 
  27   0.0000       0.034016         0.9256 
  28   0.0000       0.039847         1.0843 
  29   0.0000       0.039969         1.0876 
  30   0.0000       0.050534         1.3751 
  31   0.0000       0.057063         1.5528 
  32   0.0000       0.063574         1.7299 
  33   0.0000       0.116230         3.1628 
  34   0.0000       0.133824         3.6415 
  35   0.0000       0.159570         4.3421 
  36   0.0000       0.162308         4.4166 
  37   0.0000       0.162772         4.4293 
  38   0.0000       0.173595         4.7238 
  39   0.0000       0.177598         4.8327 
  40   0.0000       0.204060         5.5527 
  41   0.0000       0.216608         5.8942 
  42   0.0000       0.233586         6.3562 
  43   0.0000       0.235949         6.4205 
  44   0.0000       0.243895         6.6367 
  45   0.0000       0.250799         6.8246 
  46   0.0000       0.265473         7.2239 
  47   0.0000       0.269251         7.3267 
  48   0.0000       0.300352         8.1730 
  49   0.0000       0.316641         8.6163 
  50   0.0000       0.340463         9.2645 
  51   0.0000       0.351802         9.5730 
  52   0.0000       0.376538        10.2461 
  53   0.0000       0.381059        10.3691 
  54   0.0000       0.453024        12.3274 
  55   0.0000       0.461868        12.5681 
  56   0.0000       0.498844        13.5742 
  57   0.0000       0.568962        15.4822 
  58   0.0000       0.628777        17.1099 
  59   0.0000       0.787982        21.4421 
  60   0.0000       0.863261        23.4905 
  61   0.0000       0.900575        24.5059 
  62   0.0000       1.083938        29.4954 
  63   0.0000       1.125861        30.6362 
  64   0.0000       1.192532        32.4504 
  65   0.0000       1.194610        32.5070 
  66   0.0000       1.251500        34.0550 
  67   0.0000       1.280425        34.8421 
  68   0.0000       1.282768        34.9059 
  69   0.0000       1.303094        35.4590 
  70   0.0000       1.334629        36.3171 
  71   0.0000       1.375028        37.4164 
  72   0.0000       1.399471        38.0815 
  73   0.0000       1.450566        39.4719 
  74   0.0000       1.473080        40.0845 
  75   0.0000       1.675545        45.5939 
  76   0.0000       1.786172        48.6042 
  77   0.0000       1.793953        48.8159 
  78   0.0000       1.809085        49.2277 
  79   0.0000       1.866624        50.7934 
  80   0.0000       1.882665        51.2299 
  81   0.0000       1.887835        51.3706 
  82   0.0000       1.896013        51.5931 
  83   0.0000       2.006387        54.5966 
  84   0.0000       2.010998        54.7221 
  85   0.0000       2.037797        55.4513 
  86   0.0000       2.206012        60.0286 
  87   0.0000       2.263583        61.5952 
  88   0.0000       2.607664        70.9581 
  89   0.0000       2.614815        71.1527 
  90   0.0000       2.763380        75.1954 
  91   0.0000       2.846933        77.4690 
  92   0.0000       3.007985        81.8514 
  93   0.0000       3.090869        84.1068 
  94   0.0000       3.113851        84.7322 
  95   0.0000       3.215658        87.5025 
  96   0.0000      19.955589       543.0192 

                    ********************************
                    * MULLIKEN POPULATION ANALYSIS *
                    ********************************

-----------------------
MULLIKEN ATOMIC CHARGES
-----------------------
   0 C :    0.817543
   1 O :   -0.739000
   2 O :   -0.706161
   3 O :   -0.693320
   4 Cs:    0.835125
   5 H :    0.485813
Sum of atomic charges:   -0.0000000

--------------------------------
MULLIKEN REDUCED ORBITAL CHARGES
--------------------------------
  0 C s       :     2.838465  s :     2.838465
      pz      :     0.692512  p :     2.167905
      px      :     0.753301
      py      :     0.722092
      dz2     :     0.046256  d :     0.176087
      dxz     :     0.020945
      dyz     :     0.047696
      dx2y2   :     0.028233
      dxy     :     0.032956
  1 O s       :     3.938691  s :     3.938691
      pz      :     1.779509  p :     4.778295
      px      :     1.675222
      py      :     1.323565
      dz2     :     0.002599  d :     0.022014
      dxz     :     0.000808
      dyz     :     0.005420
      dx2y2   :     0.006218
      dxy     :     0.006968
  2 O s       :     3.950673  s :     3.950673
      pz      :     1.629365  p :     4.732783
      px      :     1.587538
      py      :     1.515881
      dz2     :     0.003144  d :     0.022704
      dxz     :     0.002418
      dyz     :     0.006494
      dx2y2   :     0.004729
      dxy     :     0.005919
  3 O s       :     3.920389  s :     3.920389
      pz      :     1.384564  p :     4.744531
      px      :     1.790715
      py      :     1.569251
      dz2     :     0.006460  d :     0.028401
      dxz     :     0.003186
      dyz     :     0.008006
      dx2y2   :     0.006174
      dxy     :     0.004574
  4 Css       :     2.028862  s :     2.028862
      pz      :     2.004910  p :     6.008427
      px      :     2.001998
      py      :     2.001519
      dz2     :     0.029258  d :     0.127586
      dxz     :     0.035000
      dyz     :     0.042767
      dx2y2   :     0.008572
      dxy     :     0.011989
  5 H s       :     0.514187  s :     0.514187


                     *******************************
                     * LOEWDIN POPULATION ANALYSIS *
                     *******************************

----------------------
LOEWDIN ATOMIC CHARGES
----------------------
   0 C :    0.408664
   1 O :   -0.608183
   2 O :   -0.560980
   3 O :   -0.495135
   4 Cs:    0.855623
   5 H :    0.400011

-------------------------------
LOEWDIN REDUCED ORBITAL CHARGES
-------------------------------
  0 C s       :     2.672593  s :     2.672593
      pz      :     0.843990  p :     2.530745
      px      :     0.741861
      py      :     0.944894
      dz2     :     0.105227  d :     0.387997
      dxz     :     0.043999
      dyz     :     0.105939
      dx2y2   :     0.065320
      dxy     :     0.067512
  1 O s       :     3.602740  s :     3.602740
      pz      :     1.796317  p :     4.957816
      px      :     1.673718
      py      :     1.487781
      dz2     :     0.006403  d :     0.047626
      dxz     :     0.001241
      dyz     :     0.012382
      dx2y2   :     0.017134
      dxy     :     0.010467
  2 O s       :     3.591446  s :     3.591446
      pz      :     1.689588  p :     4.920848
      px      :     1.605387
      py      :     1.625872
      dz2     :     0.006285  d :     0.048686
      dxz     :     0.005293
      dyz     :     0.016550
      dx2y2   :     0.009878
      dxy     :     0.010680
  3 O s       :     3.584742  s :     3.584742
      pz      :     1.456510  p :     4.858180
      px      :     1.787412
      py      :     1.614258
      dz2     :     0.015404  d :     0.052214
      dxz     :     0.007288
      dyz     :     0.015625
      dx2y2   :     0.007915
      dxy     :     0.005982
  4 Css       :     1.968662  s :     1.968662
      pz      :     1.979751  p :     5.960490
      px      :     1.992753
      py      :     1.987987
      dz2     :     0.046163  d :     0.215225
      dxz     :     0.058107
      dyz     :     0.074407
      dx2y2   :     0.015851
      dxy     :     0.020697
  5 H s       :     0.599989  s :     0.599989


                      *****************************
                      * MAYER POPULATION ANALYSIS *
                      *****************************

  NA   - Mulliken gross atomic population
  ZA   - Total nuclear charge
  QA   - Mulliken gross atomic charge
  VA   - Mayer's total valence
  BVA  - Mayer's bonded valence
  FA   - Mayer's free valence

  ATOM       NA         ZA         QA         VA         BVA        FA
  0 C      5.1825     6.0000     0.8175     3.8231     3.8231    -0.0000
  1 O      8.7390     8.0000    -0.7390     1.5264     1.5264     0.0000
  2 O      8.7062     8.0000    -0.7062     1.6225     1.6225    -0.0000
  3 O      8.6933     8.0000    -0.6933     1.6114     1.6114    -0.0000
  4 Cs     8.1649     9.0000     0.8351     0.2868     0.2868    -0.0000
  5 H      0.5142     1.0000     0.4858     0.7191     0.7191    -0.0000

  Mayer bond orders larger than 0.100000
B(  0-C ,  1-O ) :   1.4017 B(  0-C ,  2-O ) :   1.4634 B(  0-C ,  3-O ) :   0.9334 
B(  1-O ,  4-Cs) :   0.1224 B(  2-O ,  4-Cs) :   0.1339 B(  3-O ,  5-H ) :   0.6856 


-------
TIMINGS
-------

Total SCF time: 0 days 0 hours 0 min 6 sec 

Total time                  ....       6.160 sec
Sum of individual times     ....       5.761 sec  ( 93.5%)

Fock matrix formation       ....       4.207 sec  ( 68.3%)
  Split-RI-J                ....       0.175 sec  (  4.2% of F)
  Chain of spheres X        ....       1.664 sec  ( 39.6% of F)
  XC integration            ....       2.020 sec  ( 48.0% of F)
    Basis function eval.    ....       0.080 sec  (  4.0% of XC)
    Density eval.           ....       0.147 sec  (  7.3% of XC)
    XC-Functional eval.     ....       0.112 sec  (  5.6% of XC)
    XC-Potential eval.      ....       0.054 sec  (  2.7% of XC)
Diagonalization             ....       0.004 sec  (  0.1%)
Density matrix formation    ....       0.001 sec  (  0.0%)
Population analysis         ....       0.255 sec  (  4.1%)
Initial guess               ....       0.003 sec  (  0.1%)
Orbital Transformation      ....       0.000 sec  (  0.0%)
Orbital Orthonormalization  ....       0.001 sec  (  0.0%)
DIIS solution               ....       0.001 sec  (  0.0%)
SOSCF solution              ....       0.173 sec  (  2.8%)
Grid generation             ....       1.116 sec  ( 18.1%)

Maximum memory used throughout the entire SCF-calculation: 47.1 MB


-------------------------------------------------------------------------------
                          DFT DISPERSION CORRECTION                            
                                                                               
                              DFTD3 V3.1  Rev 1                                
                          USING Becke-Johnson damping                          
-------------------------------------------------------------------------------
The PBE0 functional is recognized
Active option DFTDOPT                   ...         4   

molecular C6(AA) [au] = 1609.373432 


            DFT-D V3
 parameters
 s6 scaling factor         :     1.0000 
 a1 scaling factor         :     0.4145 
 s8 scaling factor         :     1.2177 
 a2 scaling factor         :     4.8593 
 ad hoc parameters k1-k3   :    16.0000     1.3333    -4.0000 

 Edisp/kcal,au: -1.899111157583  -0.003026425948 
 E6   /kcal   :  -0.997722943 
 E8   /kcal   :  -0.901388215 
 % E8         :  47.463689068 

-------------------------   ----------------
Dispersion correction           -0.003026426
-------------------------   ----------------


-------------------------   --------------------
FINAL SINGLE POINT ENERGY      -284.365393213374
-------------------------   --------------------

                                *** OPTIMIZATION RUN DONE ***

                            ***************************************
                            *     ORCA property calculations      *
                            ***************************************

                                    ---------------------
                                    Active property flags
                                    ---------------------
   (+) Dipole Moment


------------------------------------------------------------------------------
                       ORCA ELECTRIC PROPERTIES CALCULATION
------------------------------------------------------------------------------

Dipole Moment Calculation                       ... on
Quadrupole Moment Calculation                   ... off
Polarizability Calculation                      ... off
GBWName                                         ... CsHCO3.gbw
Electron density                                ... CsHCO3.scfp
The origin for moment calculation is the CENTER OF MASS  = (-11.112593,  9.672455  3.498523)

-------------
DIPOLE MOMENT
-------------
                                X             Y             Z
Electronic contribution:    -44.83074      26.85483     105.02757
Nuclear contribution   :     43.47413     -25.44659    -101.98112
                        -----------------------------------------
Total Dipole Moment    :     -1.35661       1.40824       3.04644
                        -----------------------------------------
Magnitude (a.u.)       :      3.62000
Magnitude (Debye)      :      9.20130



--------------------
Rotational spectrum 
--------------------
 
Rotational constants in cm-1:     0.399723     0.035283     0.032508 
Rotational constants in MHz : 11983.398814  1057.761661   974.572471 

 Dipole components along the rotational axes: 
x,y,z [a.u.] :     3.566173    -0.594129    -0.183800 
x,y,z [Debye]:     9.064492    -1.510155    -0.467184 

 

Timings for individual modules:

Sum of individual times         ...      337.849 sec (=   5.631 min)
GTO integral calculation        ...       24.121 sec (=   0.402 min)   7.1 %
SCF iterations                  ...      277.399 sec (=   4.623 min)  82.1 %
SCF Gradient evaluation         ...       35.770 sec (=   0.596 min)  10.6 %
Geometry relaxation             ...        0.558 sec (=   0.009 min)   0.2 %
                             ****ORCA TERMINATED NORMALLY****
TOTAL RUN TIME: 0 days 0 hours 5 minutes 58 seconds 853 msec
