 Entering Gaussian System, Link 0=g16
 Initial command:
 /opt/software/gaussian/g16.c01/l1.exe "/localscratch/nrob.28214087.0/Gau-239347.inp" -scrdir="/localscratch/nrob.28214087.0/"
 Entering Link 1 = /opt/software/gaussian/g16.c01/l1.exe PID=    239351.
  
 Copyright (c) 1988-2019, Gaussian, Inc.  All Rights Reserved.
  
 This is part of the Gaussian(R) 16 program.  It is based on
 the Gaussian(R) 09 system (copyright 2009, Gaussian, Inc.),
 the Gaussian(R) 03 system (copyright 2003, Gaussian, Inc.),
 the Gaussian(R) 98 system (copyright 1998, Gaussian, Inc.),
 the Gaussian(R) 94 system (copyright 1995, Gaussian, Inc.),
 the Gaussian 92(TM) system (copyright 1992, Gaussian, Inc.),
 the Gaussian 90(TM) system (copyright 1990, Gaussian, Inc.),
 the Gaussian 88(TM) system (copyright 1988, Gaussian, Inc.),
 the Gaussian 86(TM) system (copyright 1986, Carnegie Mellon
 University), and the Gaussian 82(TM) system (copyright 1983,
 Carnegie Mellon University). Gaussian is a federally registered
 trademark of Gaussian, Inc.
  
 This software contains proprietary and confidential information,
 including trade secrets, belonging to Gaussian, Inc.
  
 This software is provided under written license and may be
 used, copied, transmitted, or stored only in accord with that
 written license.
  
 The following legend is applicable only to US Government
 contracts under FAR:
  
                    RESTRICTED RIGHTS LEGEND
  
 Use, reproduction and disclosure by the US Government is
 subject to restrictions as set forth in subparagraphs (a)
 and (c) of the Commercial Computer Software - Restricted
 Rights clause in FAR 52.227-19.
  
 Gaussian, Inc.
 340 Quinnipiac St., Bldg. 40, Wallingford CT 06492
  
  
 ---------------------------------------------------------------
 Warning -- This program may not be used in any manner that
 competes with the business of Gaussian, Inc. or will provide
 assistance to any competitor of Gaussian, Inc.  The licensee
 of this program is prohibited from giving any competitor of
 Gaussian, Inc. access to this program.  By using this program,
 the user acknowledges that Gaussian, Inc. is engaged in the
 business of creating and licensing software in the field of
 computational chemistry and represents and warrants to the
 licensee that it is not a competitor of Gaussian, Inc. and that
 it will not use this program in any manner prohibited above.
 ---------------------------------------------------------------
  

 Cite this work as:
 Gaussian 16, Revision C.01,
 M. J. Frisch, G. W. Trucks, H. B. Schlegel, G. E. Scuseria, 
 M. A. Robb, J. R. Cheeseman, G. Scalmani, V. Barone, 
 G. A. Petersson, H. Nakatsuji, X. Li, M. Caricato, A. V. Marenich, 
 J. Bloino, B. G. Janesko, R. Gomperts, B. Mennucci, H. P. Hratchian, 
 J. V. Ortiz, A. F. Izmaylov, J. L. Sonnenberg, D. Williams-Young, 
 F. Ding, F. Lipparini, F. Egidi, J. Goings, B. Peng, A. Petrone, 
 T. Henderson, D. Ranasinghe, V. G. Zakrzewski, J. Gao, N. Rega, 
 G. Zheng, W. Liang, M. Hada, M. Ehara, K. Toyota, R. Fukuda, 
 J. Hasegawa, M. Ishida, T. Nakajima, Y. Honda, O. Kitao, H. Nakai, 
 T. Vreven, K. Throssell, J. A. Montgomery, Jr., J. E. Peralta, 
 F. Ogliaro, M. J. Bearpark, J. J. Heyd, E. N. Brothers, K. N. Kudin, 
 V. N. Staroverov, T. A. Keith, R. Kobayashi, J. Normand, 
 K. Raghavachari, A. P. Rendell, J. C. Burant, S. S. Iyengar, 
 J. Tomasi, M. Cossi, J. M. Millam, M. Klene, C. Adamo, R. Cammi, 
 J. W. Ochterski, R. L. Martin, K. Morokuma, O. Farkas, 
 J. B. Foresman, and D. J. Fox, Gaussian, Inc., Wallingford CT, 2019.
 
 ******************************************
 Gaussian 16:  ES64L-G16RevC.01  3-Jul-2019
                24-Mar-2025 
 ******************************************
 -----------------------------------------------
 #P B3LYP/Def2SVP EmpiricalDispersion=GD3BJ Freq
 -----------------------------------------------
 1/10=4,30=1,38=1/1,3;
 2/12=2,17=6,18=5,40=1/2;
 3/5=43,7=101,11=2,25=1,30=1,71=2,74=-5,124=41,140=1/1,2,3;
 4//1;
 5/5=2,38=5,98=1/2;
 8/6=4,10=90,11=11/1;
 11/6=1,8=1,9=11,15=111,16=1/1,2,10;
 10/6=1/2;
 6/7=2,8=2,9=2,10=2,28=1/1;
 7/8=1,10=1,25=1/1,2,3,16;
 1/10=4,30=1/3;
 99//99;
 Leave Link    1 at Mon Mar 24 13:56:31 2025, MaxMem=           0 cpu:               0.1 elap:               0.1
 (Enter /opt/software/gaussian/g16.c01/l101.exe)
 -----
 water
 -----
 Symbolic Z-matrix:
 Charge =  0 Multiplicity = 1
 O                     0.        0.12023   0. 
 H                     0.75703  -0.48094   0. 
 H                    -0.75703  -0.48094   0. 
 
 ITRead=  0  0  0
 MicOpt= -1 -1 -1
 NAtoms=      3 NQM=        3 NQMF=       0 NMMI=      0 NMMIF=      0
                NMic=       0 NMicF=      0.
                    Isotopes and Nuclear Properties:
 (Nuclear quadrupole moments (NQMom) in fm**2, nuclear magnetic moments (NMagM)
  in nuclear magnetons)

  Atom         1           2           3
 IAtWgt=          16           1           1
 AtmWgt=  15.9949146   1.0078250   1.0078250
 NucSpn=           0           1           1
 AtZEff=  -0.0000000  -0.0000000  -0.0000000
 NQMom=    0.0000000   0.0000000   0.0000000
 NMagM=    0.0000000   2.7928460   2.7928460
 AtZNuc=   8.0000000   1.0000000   1.0000000
 Leave Link  101 at Mon Mar 24 13:56:32 2025, MaxMem=   104857600 cpu:               0.2 elap:               0.2
 (Enter /opt/software/gaussian/g16.c01/l103.exe)

 GradGradGradGradGradGradGradGradGradGradGradGradGradGradGradGradGradGrad
 Berny optimization.
 Initialization pass.
 Trust Radius=3.00D-01 FncErr=1.00D-07 GrdErr=1.00D-07 EigMax=2.50D+02 EigMin=1.00D-04
 Number of steps in this run=      2 maximum allowed number of steps=      2.
 GradGradGradGradGradGradGradGradGradGradGradGradGradGradGradGradGradGrad

 Leave Link  103 at Mon Mar 24 13:56:32 2025, MaxMem=   104857600 cpu:               0.0 elap:               0.0
 (Enter /opt/software/gaussian/g16.c01/l202.exe)
                          Input orientation:                          
 ---------------------------------------------------------------------
 Center     Atomic      Atomic             Coordinates (Angstroms)
 Number     Number       Type             X           Y           Z
 ---------------------------------------------------------------------
      1          8           0        0.000000    0.120234    0.000000
      2          1           0        0.757025   -0.480936    0.000000
      3          1           0       -0.757025   -0.480936    0.000000
 ---------------------------------------------------------------------
                    Distance matrix (angstroms):
                    1          2          3
     1  O    0.000000
     2  H    0.966691   0.000000
     3  H    0.966691   1.514050   0.000000
 Stoichiometry    H2O
 Framework group  C2V[C2(O),SGV(H2)]
 Deg. of freedom     2
 Full point group                 C2V     NOp   4
 Largest Abelian subgroup         C2V     NOp   4
 Largest concise Abelian subgroup C2      NOp   2
                         Standard orientation:                         
 ---------------------------------------------------------------------
 Center     Atomic      Atomic             Coordinates (Angstroms)
 Number     Number       Type             X           Y           Z
 ---------------------------------------------------------------------
      1          8           0        0.000000    0.000000    0.120234
      2          1           0        0.000000    0.757025   -0.480936
      3          1           0       -0.000000   -0.757025   -0.480936
 ---------------------------------------------------------------------
 Rotational constants (GHZ):         781.1831450         437.5035860         280.4415758
 Leave Link  202 at Mon Mar 24 13:56:32 2025, MaxMem=   104857600 cpu:               0.0 elap:               0.0
 (Enter /opt/software/gaussian/g16.c01/l301.exe)
 Standard basis: def2SVP (5D, 7F)
 Ernie: Thresh=  0.10000D-02 Tol=  0.10000D-05 Strict=F.
 There are    12 symmetry adapted cartesian basis functions of A1  symmetry.
 There are     2 symmetry adapted cartesian basis functions of A2  symmetry.
 There are     4 symmetry adapted cartesian basis functions of B1  symmetry.
 There are     7 symmetry adapted cartesian basis functions of B2  symmetry.
 There are    11 symmetry adapted basis functions of A1  symmetry.
 There are     2 symmetry adapted basis functions of A2  symmetry.
 There are     4 symmetry adapted basis functions of B1  symmetry.
 There are     7 symmetry adapted basis functions of B2  symmetry.
    24 basis functions,    39 primitive gaussians,    25 cartesian basis functions
     5 alpha electrons        5 beta electrons
       nuclear repulsion energy         9.1080823733 Hartrees.
 IExCor=  402 DFT=T Ex+Corr=B3LYP ExCW=0 ScaHFX=  0.200000
 ScaDFX=  0.800000  0.720000  1.000000  0.810000 ScalE2=  1.000000  1.000000
 IRadAn=      5 IRanWt=     -1 IRanGd=            0 ICorTp=0 IEmpDi=141
 NAtoms=    3 NActive=    3 NUniq=    2 SFac= 2.25D+00 NAtFMM=   60 NAOKFM=F Big=F
 Integral buffers will be    131072 words long.
 Raffenetti 2 integral format.
 Two-electron integral symmetry is turned on.
 R6Disp:  Grimme-D3(BJ) Dispersion energy=       -0.0005739489 Hartrees.
 Nuclear repulsion after empirical dispersion term =        9.1075084244 Hartrees.
 Leave Link  301 at Mon Mar 24 13:56:32 2025, MaxMem=   104857600 cpu:               0.0 elap:               0.1
 (Enter /opt/software/gaussian/g16.c01/l302.exe)
 NPDir=0 NMtPBC=     1 NCelOv=     1 NCel=       1 NClECP=     1 NCelD=      1
         NCelK=      1 NCelE2=     1 NClLst=     1 CellRange=     0.0.
 One-electron integrals computed using PRISM.
 One-electron integral symmetry used in STVInt
   4 Symmetry operations used in ECPInt.
 ECPInt:  NShTT=      78 NPrTT=     272 LenC2=      79 LenP2D=     271.
 LDataN:  DoStor=T MaxTD1= 4 Len=   56
 NBasis=    24 RedAO= T EigKep=  3.79D-02  NBF=    11     2     4     7
 NBsUse=    24 1.00D-06 EigRej= -1.00D+00 NBFU=    11     2     4     7
 Precomputing XC quadrature grid using
 IXCGrd= 4 IRadAn=           5 IRanWt=          -1 IRanGd=           0 AccXCQ= 0.00D+00.
 Generated NRdTot=       0 NPtTot=           0 NUsed=           0 NTot=          32
 NSgBfM=    25    25    25    25    25 MxSgAt=     3 MxSgA2=     3.
 Leave Link  302 at Mon Mar 24 13:56:32 2025, MaxMem=   104857600 cpu:               0.1 elap:               0.2
 (Enter /opt/software/gaussian/g16.c01/l303.exe)
 DipDrv:  MaxL=1.
 Leave Link  303 at Mon Mar 24 13:56:32 2025, MaxMem=   104857600 cpu:               0.0 elap:               0.0
 (Enter /opt/software/gaussian/g16.c01/l401.exe)
 ExpMin= 1.22D-01 ExpMax= 2.27D+03 ExpMxC= 3.41D+02 IAcc=3 IRadAn=         5 AccDes= 0.00D+00
 Harris functional with IExCor=  402 and IRadAn=       5 diagonalized for initial guess.
 HarFok:  IExCor=  402 AccDes= 0.00D+00 IRadAn=         5 IDoV= 1 UseB2=F ITyADJ=14
 ICtDFT=  3500011 ScaDFX=  1.000000  1.000000  1.000000  1.000000
 FoFCou: FMM=F IPFlag=           0 FMFlag=      100000 FMFlg1=           0
         NFxFlg=           0 DoJE=T BraDBF=F KetDBF=T FulRan=T
         wScrn=  0.000000 ICntrl=       500 IOpCl=  0 I1Cent=   200000004 NGrid=           0
         NMat0=    1 NMatS0=      1 NMatT0=    0 NMatD0=    1 NMtDS0=    0 NMtDT0=    0
 Petite list used in FoFCou.
 Harris En= -76.3965863625252    
 JPrj=0 DoOrth=F DoCkMO=F.
 Initial guess orbital symmetries:
       Occupied  (A1) (A1) (B2) (A1) (B1)
       Virtual   (A1) (B2) (B2) (A1) (B1) (A1) (B2) (A1) (A2) (A1)
                 (B1) (B2) (B2) (A1) (B1) (A2) (A1) (A1) (B2)
 The electronic state of the initial guess is 1-A1.
 Leave Link  401 at Mon Mar 24 13:56:33 2025, MaxMem=   104857600 cpu:               0.2 elap:               0.2
 (Enter /opt/software/gaussian/g16.c01/l502.exe)
 Keep R1 ints in memory in symmetry-blocked form, NReq=910336.
 FoFCou: FMM=F IPFlag=           0 FMFlag=           0 FMFlg1=           0
         NFxFlg=           0 DoJE=F BraDBF=F KetDBF=F FulRan=T
         wScrn=  0.000000 ICntrl=       600 IOpCl=  0 I1Cent=           0 NGrid=           0
         NMat0=    1 NMatS0=    300 NMatT0=    0 NMatD0=    1 NMtDS0=    0 NMtDT0=    0
 Petite list used in FoFCou.
 Closed shell SCF:
 Using DIIS extrapolation, IDIIS=  1040.
 NGot=   104857600 LenX=   104841804 LenY=   104840738
 Requested convergence on RMS density matrix=1.00D-08 within 128 cycles.
 Requested convergence on MAX density matrix=1.00D-06.
 Requested convergence on             energy=1.00D-06.
 No special actions if energy rises.
 Integral accuracy reduced to 1.0D-05 until final iterations.

 Cycle   1  Pass 0  IDiag  1:
 E= -76.2824303401553    
 DIIS: error= 5.24D-02 at cycle   1 NSaved=   1.
 NSaved= 1 IEnMin= 1 EnMin= -76.2824303401553     IErMin= 1 ErrMin= 5.24D-02
 ErrMax= 5.24D-02  0.00D+00 EMaxC= 1.00D-01 BMatC= 1.02D-01 BMatP= 1.02D-01
 IDIUse=3 WtCom= 4.76D-01 WtEn= 5.24D-01
 Coeff-Com:  0.100D+01
 Coeff-En:   0.100D+01
 Coeff:      0.100D+01
 Gap=     0.190 Goal=   None    Shift=    0.000
 GapD=    0.190 DampG=1.000 DampE=0.500 DampFc=0.5000 IDamp=-1.
 Damping current iteration by 5.00D-01
 RMSDP=2.09D-02 MaxDP=1.69D-01              OVMax= 2.03D-01

 Cycle   2  Pass 0  IDiag  1:
 E= -76.3084883020263     Delta-E=       -0.026057961871 Rises=F Damp=T
 DIIS: error= 1.41D-02 at cycle   2 NSaved=   2.
 NSaved= 2 IEnMin= 2 EnMin= -76.3084883020263     IErMin= 2 ErrMin= 1.41D-02
 ErrMax= 1.41D-02  0.00D+00 EMaxC= 1.00D-01 BMatC= 5.71D-03 BMatP= 1.02D-01
 IDIUse=3 WtCom= 8.59D-01 WtEn= 1.41D-01
 Coeff-Com:  0.181D+00 0.819D+00
 Coeff-En:   0.301D+00 0.699D+00
 Coeff:      0.198D+00 0.802D+00
 Gap=     0.325 Goal=   None    Shift=    0.000
 RMSDP=2.50D-03 MaxDP=3.08D-02 DE=-2.61D-02 OVMax= 1.12D-01

 Cycle   3  Pass 0  IDiag  1:
 E= -76.3588251659316     Delta-E=       -0.050336863905 Rises=F Damp=F
 DIIS: error= 1.76D-03 at cycle   3 NSaved=   3.
 NSaved= 3 IEnMin= 3 EnMin= -76.3588251659316     IErMin= 3 ErrMin= 1.76D-03
 ErrMax= 1.76D-03  0.00D+00 EMaxC= 1.00D-01 BMatC= 9.40D-05 BMatP= 5.71D-03
 IDIUse=3 WtCom= 9.82D-01 WtEn= 1.76D-02
 Coeff-Com:  0.308D-01 0.228D-01 0.946D+00
 Coeff-En:   0.000D+00 0.000D+00 0.100D+01
 Coeff:      0.303D-01 0.224D-01 0.947D+00
 Gap=     0.336 Goal=   None    Shift=    0.000
 RMSDP=2.70D-04 MaxDP=2.44D-03 DE=-5.03D-02 OVMax= 2.16D-03

 Cycle   4  Pass 0  IDiag  1:
 E= -76.3588879765034     Delta-E=       -0.000062810572 Rises=F Damp=F
 DIIS: error= 2.44D-04 at cycle   4 NSaved=   4.
 NSaved= 4 IEnMin= 4 EnMin= -76.3588879765034     IErMin= 4 ErrMin= 2.44D-04
 ErrMax= 2.44D-04  0.00D+00 EMaxC= 1.00D-01 BMatC= 2.04D-06 BMatP= 9.40D-05
 IDIUse=3 WtCom= 9.98D-01 WtEn= 2.44D-03
 Coeff-Com:  0.369D-02-0.155D-01 0.206D+00 0.806D+00
 Coeff-En:   0.000D+00 0.000D+00 0.000D+00 0.100D+01
 Coeff:      0.368D-02-0.155D-01 0.205D+00 0.807D+00
 Gap=     0.336 Goal=   None    Shift=    0.000
 RMSDP=2.71D-05 MaxDP=2.19D-04 DE=-6.28D-05 OVMax= 2.39D-04

 Cycle   5  Pass 0  IDiag  1:
 E= -76.3588892498757     Delta-E=       -0.000001273372 Rises=F Damp=F
 DIIS: error= 3.62D-05 at cycle   5 NSaved=   5.
 NSaved= 5 IEnMin= 5 EnMin= -76.3588892498757     IErMin= 5 ErrMin= 3.62D-05
 ErrMax= 3.62D-05  0.00D+00 EMaxC= 1.00D-01 BMatC= 3.47D-08 BMatP= 2.04D-06
 IDIUse=1 WtCom= 1.00D+00 WtEn= 0.00D+00
 Coeff-Com:  0.466D-03-0.496D-03 0.477D-03-0.103D-01 0.101D+01
 Coeff:      0.466D-03-0.496D-03 0.477D-03-0.103D-01 0.101D+01
 Gap=     0.336 Goal=   None    Shift=    0.000
 RMSDP=4.58D-06 MaxDP=4.72D-05 DE=-1.27D-06 OVMax= 4.27D-05

 Initial convergence to 1.0D-05 achieved.  Increase integral accuracy.
 Cycle   6  Pass 1  IDiag  1:
 E= -76.3588896844397     Delta-E=       -0.000000434564 Rises=F Damp=F
 DIIS: error= 4.36D-07 at cycle   1 NSaved=   1.
 NSaved= 1 IEnMin= 1 EnMin= -76.3588896844397     IErMin= 1 ErrMin= 4.36D-07
 ErrMax= 4.36D-07  0.00D+00 EMaxC= 1.00D-01 BMatC= 4.68D-12 BMatP= 4.68D-12
 IDIUse=1 WtCom= 1.00D+00 WtEn= 0.00D+00
 Coeff-Com:  0.100D+01
 Coeff:      0.100D+01
 Gap=     0.336 Goal=   None    Shift=    0.000
 RMSDP=4.58D-06 MaxDP=4.72D-05 DE=-4.35D-07 OVMax= 9.70D-07

 Cycle   7  Pass 1  IDiag  1:
 E= -76.3588896844456     Delta-E=       -0.000000000006 Rises=F Damp=F
 DIIS: error= 1.50D-07 at cycle   2 NSaved=   2.
 NSaved= 2 IEnMin= 2 EnMin= -76.3588896844456     IErMin= 2 ErrMin= 1.50D-07
 ErrMax= 1.50D-07  0.00D+00 EMaxC= 1.00D-01 BMatC= 5.64D-13 BMatP= 4.68D-12
 IDIUse=1 WtCom= 1.00D+00 WtEn= 0.00D+00
 Coeff-Com:  0.137D+00 0.863D+00
 Coeff:      0.137D+00 0.863D+00
 Gap=     0.336 Goal=   None    Shift=    0.000
 RMSDP=4.18D-08 MaxDP=3.56D-07 DE=-5.95D-12 OVMax= 4.28D-07

 Cycle   8  Pass 1  IDiag  1:
 E= -76.3588896844455     Delta-E=        0.000000000000 Rises=F Damp=F
 DIIS: error= 1.45D-07 at cycle   3 NSaved=   3.
 NSaved= 3 IEnMin= 2 EnMin= -76.3588896844456     IErMin= 3 ErrMin= 1.45D-07
 ErrMax= 1.45D-07  0.00D+00 EMaxC= 1.00D-01 BMatC= 6.13D-13 BMatP= 5.64D-13
 IDIUse=1 WtCom= 1.00D+00 WtEn= 0.00D+00
 Coeff-Com: -0.422D-01 0.517D+00 0.525D+00
 Coeff:     -0.422D-01 0.517D+00 0.525D+00
 Gap=     0.336 Goal=   None    Shift=    0.000
 RMSDP=1.98D-08 MaxDP=1.85D-07 DE= 9.95D-14 OVMax= 1.77D-07

 Cycle   9  Pass 1  IDiag  1:
 E= -76.3588896844461     Delta-E=       -0.000000000001 Rises=F Damp=F
 DIIS: error= 9.33D-09 at cycle   4 NSaved=   4.
 NSaved= 4 IEnMin= 4 EnMin= -76.3588896844461     IErMin= 4 ErrMin= 9.33D-09
 ErrMax= 9.33D-09  0.00D+00 EMaxC= 1.00D-01 BMatC= 1.34D-15 BMatP= 5.64D-13
 IDIUse=1 WtCom= 1.00D+00 WtEn= 0.00D+00
 Coeff-Com: -0.108D-01 0.105D+00 0.127D+00 0.779D+00
 Coeff:     -0.108D-01 0.105D+00 0.127D+00 0.779D+00
 Gap=     0.336 Goal=   None    Shift=    0.000
 RMSDP=1.01D-09 MaxDP=7.86D-09 DE=-5.40D-13 OVMax= 1.24D-08

 SCF Done:  E(RB3LYP) =  -76.3588896844     A.U. after    9 cycles
            NFock=  9  Conv=0.10D-08     -V/T= 2.0069
 KE= 7.583618454718D+01 PE=-1.987998827595D+02 EE= 3.749730010350D+01
 Leave Link  502 at Mon Mar 24 13:56:33 2025, MaxMem=   104857600 cpu:               0.4 elap:               0.4
 (Enter /opt/software/gaussian/g16.c01/l801.exe)
 DoSCS=F DFT=T ScalE2(SS,OS)=  1.000000  1.000000
 Range of M.O.s used for correlation:     1    24
 NBasis=    24 NAE=     5 NBE=     5 NFC=     0 NFV=     0
 NROrb=     24 NOA=     5 NOB=     5 NVA=    19 NVB=    19
 Leave Link  801 at Mon Mar 24 13:56:33 2025, MaxMem=   104857600 cpu:               0.0 elap:               0.1
 (Enter /opt/software/gaussian/g16.c01/l1101.exe)
 Using compressed storage, NAtomX=     3.
 Will process      4 centers per pass.
   4 Symmetry operations used in ECPInt.
 ECPInt:  NShTT=      78 NPrTT=     272 LenC2=      79 LenP2D=     271.
 LDataN:  DoStor=T MaxTD1= 5 Len=  102
 R6Disp: Adding Grimme-D3(BJ) dispersion energy 1st derivatives to the gradient.
 Leave Link 1101 at Mon Mar 24 13:56:34 2025, MaxMem=   104857600 cpu:               0.1 elap:               0.1
 (Enter /opt/software/gaussian/g16.c01/l1102.exe)
 Symmetrizing basis deriv contribution to polar:
 IMax=3 JMax=2 DiffMx= 0.00D+00
 Leave Link 1102 at Mon Mar 24 13:56:34 2025, MaxMem=   104857600 cpu:               0.0 elap:               0.1
 (Enter /opt/software/gaussian/g16.c01/l1110.exe)
 Forming Gx(P) for the SCF density, NAtomX=     3.
 Integral derivatives from FoFJK, PRISM(SPDF).
 Do as many integral derivatives as possible in FoFJK.
 G2DrvN: MDV=     104857167.
 G2DrvN: will do     4 centers at a time, making    1 passes.
 Calling FoFCou, ICntrl=  3107 FMM=F I1Cent=   0 AccDes= 0.00D+00.
 FoFJK:  IHMeth= 1 ICntrl=    3107 DoSepK=F KAlg= 0 I1Cent=           0 FoldK=F
 IRaf=         0 NMat=       1 IRICut=       1 DoRegI=T DoRafI=F ISym2E= 1 IDoP0=0 IntGTp=1.
 FoFCou: FMM=F IPFlag=           0 FMFlag=      100000 FMFlg1=           0
         NFxFlg=           0 DoJE=F BraDBF=F KetDBF=F FulRan=T
         wScrn=  0.000000 ICntrl=      3107 IOpCl=  0 I1Cent=           0 NGrid=           0
         NMat0=    1 NMatS0=      1 NMatT0=    0 NMatD0=    1 NMtDS0=    0 NMtDT0=    0
 Petite list used in FoFCou.
 End of G2Drv F.D. properties file   721 does not exist.
 End of G2Drv F.D. properties file   722 does not exist.
 End of G2Drv F.D. properties file   788 does not exist.
 Leave Link 1110 at Mon Mar 24 13:56:34 2025, MaxMem=   104857600 cpu:               0.3 elap:               0.4
 (Enter /opt/software/gaussian/g16.c01/l1002.exe)
 Minotr:  Closed shell wavefunction.
          IDoAtm=111
          Direct CPHF calculation.
          Differentiating once with respect to electric field.
                with respect to dipole field.
          Differentiating once with respect to nuclear coordinates.
          Using symmetry in CPHF.
          Requested convergence is 1.0D-08 RMS, and 1.0D-07 maximum.
          Secondary convergence is 1.0D-12 RMS, and 1.0D-12 maximum.
          NewPWx=T KeepS1=F KeepF1=F KeepIn=T MapXYZ=F SortEE=F KeepMc=T.
          874 words used for storage of precomputed grid.
 Keep R1 ints in memory in symmetry-blocked form, NReq=909723.
 FoFCou: FMM=F IPFlag=           0 FMFlag=           0 FMFlg1=           0
         NFxFlg=           0 DoJE=F BraDBF=F KetDBF=F FulRan=T
         wScrn=  0.000000 ICntrl=       600 IOpCl=  0 I1Cent=           0 NGrid=           0
         NMat0=    1 NMatS0=    300 NMatT0=    0 NMatD0=    1 NMtDS0=    0 NMtDT0=    0
 Petite list used in FoFCou.
          MDV=     104857600 using IRadAn=       1.
          Solving linear equations simultaneously, MaxMat=       0.
          There are     9 degrees of freedom in the 1st order CPHF.  IDoFFX=4 NUNeed=     9.
      9 vectors produced by pass  0 Test12= 1.06D-15 1.11D-08 XBig12= 3.20D+00 1.22D+00.
 AX will form     9 AO Fock derivatives at one time.
      9 vectors produced by pass  1 Test12= 1.06D-15 1.11D-08 XBig12= 4.22D-01 3.33D-01.
      9 vectors produced by pass  2 Test12= 1.06D-15 1.11D-08 XBig12= 4.37D-03 2.73D-02.
      9 vectors produced by pass  3 Test12= 1.06D-15 1.11D-08 XBig12= 5.77D-06 1.06D-03.
      8 vectors produced by pass  4 Test12= 1.06D-15 1.11D-08 XBig12= 4.79D-09 3.11D-05.
      4 vectors produced by pass  5 Test12= 1.06D-15 1.11D-08 XBig12= 1.14D-12 3.74D-07.
 InvSVY:  IOpt=1 It=  1 EMax= 2.22D-16
 Solved reduced A of dimension    48 with     9 vectors.
 FullF1:  Do perturbations      1 to       9.
 Isotropic polarizability for W=    0.000000        5.30 Bohr**3.
 End of Minotr F.D. properties file   721 does not exist.
 End of Minotr F.D. properties file   722 does not exist.
 End of Minotr F.D. properties file   788 does not exist.
 Leave Link 1002 at Mon Mar 24 13:56:35 2025, MaxMem=   104857600 cpu:               0.7 elap:               0.8
 (Enter /opt/software/gaussian/g16.c01/l601.exe)
 Copying SCF densities to generalized density rwf, IOpCl= 0 IROHF=0.

 **********************************************************************

            Population analysis using the SCF Density.

 **********************************************************************

 Orbital symmetries:
       Occupied  (A1) (A1) (B2) (A1) (B1)
       Virtual   (A1) (B2) (B2) (A1) (A1) (B1) (B2) (A1) (A2) (A1)
                 (B1) (B2) (B2) (A1) (B1) (A2) (A1) (A1) (B2)
 The electronic state is 1-A1.
 Alpha  occ. eigenvalues --  -19.11966  -0.97980  -0.51161  -0.36791  -0.29167
 Alpha virt. eigenvalues --    0.04480   0.12389   0.55509   0.62051   0.91734
 Alpha virt. eigenvalues --    0.92035   1.00686   1.09514   1.34768   1.39537
 Alpha virt. eigenvalues --    1.54218   1.78667   2.19879   2.24598   2.96049
 Alpha virt. eigenvalues --    2.99667   3.18474   3.48352   3.82044
          Condensed to atoms (all electrons):
               1          2          3
     1  O    7.645997   0.324249   0.324249
     2  H    0.324249   0.561497  -0.032994
     3  H    0.324249  -0.032994   0.561497
 Mulliken charges:
               1
     1  O   -0.294496
     2  H    0.147248
     3  H    0.147248
 Sum of Mulliken charges =   0.00000
 Mulliken charges with hydrogens summed into heavy atoms:
               1
     1  O    0.000000
 APT charges:
               1
     1  O   -0.478476
     2  H    0.239238
     3  H    0.239238
 Sum of APT charges =   0.00000
 APT charges with hydrogens summed into heavy atoms:
               1
     1  O    0.000000
 Electronic spatial extent (au):  <R**2>=             19.0147
 Charge=              0.0000 electrons
 Dipole moment (field-independent basis, Debye):
    X=             -0.0000    Y=              0.0000    Z=             -2.0046  Tot=              2.0046
 Quadrupole moment (field-independent basis, Debye-Ang):
   XX=             -7.0031   YY=             -4.3525   ZZ=             -5.9371
   XY=              0.0000   XZ=              0.0000   YZ=             -0.0000
 Traceless Quadrupole moment (field-independent basis, Debye-Ang):
   XX=             -1.2389   YY=              1.4118   ZZ=             -0.1728
   XY=              0.0000   XZ=              0.0000   YZ=             -0.0000
 Octapole moment (field-independent basis, Debye-Ang**2):
  XXX=              0.0000  YYY=             -0.0000  ZZZ=             -1.0655  XYY=             -0.0000
  XXY=             -0.0000  XXZ=             -0.2768  XZZ=              0.0000  YZZ=             -0.0000
  YYZ=             -1.1067  XYZ=             -0.0000
 Hexadecapole moment (field-independent basis, Debye-Ang**3):
 XXXX=             -4.8418 YYYY=             -6.2003 ZZZZ=             -6.1589 XXXY=             -0.0000
 XXXZ=             -0.0000 YYYX=             -0.0000 YYYZ=             -0.0000 ZZZX=             -0.0000
 ZZZY=             -0.0000 XXYY=             -2.0919 XXZZ=             -1.8882 YYZZ=             -1.7272
 XXYZ=              0.0000 YYXZ=              0.0000 ZZXY=             -0.0000
 N-N= 9.107508424399D+00 E-N=-1.987998826522D+02  KE= 7.583618454718D+01
 Symmetry A1   KE= 6.766493326621D+01
 Symmetry A2   KE= 4.385183562293D-34
 Symmetry B1   KE= 4.631281328497D+00
 Symmetry B2   KE= 3.539969952479D+00
  Exact polarizability:       3.113      -0.000       7.313      -0.000      -0.000       5.479
 Approx polarizability:       3.315       0.000       8.883       0.000      -0.000       6.819
 No NMR shielding tensors so no spin-rotation constants.
 Leave Link  601 at Mon Mar 24 13:56:35 2025, MaxMem=   104857600 cpu:               0.1 elap:               0.1
 (Enter /opt/software/gaussian/g16.c01/l701.exe)
 ... and contract with generalized density number  0.
 Compute integral second derivatives.
 R6Disp: Adding Grimme-D3(BJ) dispersion energy 2nd derivatives to the Hessian.
   4 Symmetry operations used in ECPInt.
 ECPInt:  NShTT=      78 NPrTT=     272 LenC2=      79 LenP2D=     271.
 LDataN:  DoStor=T MaxTD1= 6 Len=  172
 Leave Link  701 at Mon Mar 24 13:56:35 2025, MaxMem=   104857600 cpu:               0.1 elap:               0.1
 (Enter /opt/software/gaussian/g16.c01/l702.exe)
 L702 exits ... SP integral derivatives will be done elsewhere.
 Leave Link  702 at Mon Mar 24 13:56:36 2025, MaxMem=   104857600 cpu:               0.0 elap:               0.0
 (Enter /opt/software/gaussian/g16.c01/l703.exe)
 Integral derivatives from FoFJK, PRISM(SPDF).
 Compute integral second derivatives, UseDBF=F ICtDFT=           0.
 Calling FoFJK, ICntrl=    100127 FMM=F ISym2X=1 I1Cent= 0 IOpClX= 0 NMat=1 NMatS=1 NMatT=0.
 FoFJK:  IHMeth= 1 ICntrl=  100127 DoSepK=F KAlg= 0 I1Cent=           0 FoldK=F
 IRaf=         0 NMat=       1 IRICut=       1 DoRegI=T DoRafI=F ISym2E= 1 IDoP0=0 IntGTp=1.
 FoFCou: FMM=F IPFlag=           0 FMFlag=      100000 FMFlg1=         800
         NFxFlg=           0 DoJE=F BraDBF=F KetDBF=F FulRan=T
         wScrn=  0.000000 ICntrl=    100127 IOpCl=  0 I1Cent=           0 NGrid=           0
         NMat0=    1 NMatS0=      1 NMatT0=    0 NMatD0=    1 NMtDS0=    0 NMtDT0=    0
 Petite list used in FoFCou.
 Leave Link  703 at Mon Mar 24 13:56:36 2025, MaxMem=   104857600 cpu:               0.5 elap:               0.5
 (Enter /opt/software/gaussian/g16.c01/l716.exe)
 Dipole        =-2.78567518D-17 7.19770490D-17-7.88652219D-01
 Polarizability= 3.11341597D+00-3.42512895D-13 7.31299328D+00
                -2.08686209D-13-3.65485420D-13 5.47891439D+00
 Full mass-weighted force constant matrix:
 Low frequencies ---    0.0003    0.0028    0.0030    9.7311   12.4484   15.7594
 Low frequencies --- 1638.9446 3791.9950 3887.0773
 Diagonal vibrational polarizability:
        0.0000000       0.0481204       0.5652258
 Harmonic frequencies (cm**-1), IR intensities (KM/Mole), Raman scattering
 activities (A**4/AMU), depolarization ratios for plane and unpolarized
 incident light, reduced masses (AMU), force constants (mDyne/A),
 and normal coordinates:
                      1                      2                      3
                     A1                     A1                     B2
 Frequencies --   1638.9446              3791.9950              3887.0773
 Red. masses --      1.0817                 1.0460                 1.0805
 Frc consts  --      1.7120                 8.8620                 9.6184
 IR Inten    --     55.5027                 4.8996                27.0174
  Atom  AN      X      Y      Z        X      Y      Z        X      Y      Z
     1   8    -0.00   0.00  -0.07     0.00  -0.00   0.05    -0.00  -0.07  -0.00
     2   1     0.00   0.43   0.56     0.00   0.58  -0.40    -0.00   0.55  -0.44
     3   1     0.00  -0.43   0.56    -0.00  -0.58  -0.40     0.00   0.55   0.44

 -------------------
 - Thermochemistry -
 -------------------
 Temperature   298.150 Kelvin.  Pressure   1.00000 Atm.
 Atom     1 has atomic number  8 and mass  15.99491
 Atom     2 has atomic number  1 and mass   1.00783
 Atom     3 has atomic number  1 and mass   1.00783
 Molecular mass:    18.01056 amu.
 Principal axes and moments of inertia in atomic units:
                           1         2         3
     Eigenvalues --     2.31027   4.12509   6.43536
           X           -0.00000   0.00000   1.00000
           Y            1.00000   0.00000   0.00000
           Z           -0.00000   1.00000   0.00000
 This molecule is an asymmetric top.
 Rotational symmetry number  2.
 Rotational temperatures (Kelvin)     37.49088    20.99686    13.45907
 Rotational constants (GHZ):         781.18315   437.50359   280.44158
 Zero-point vibrational energy      55734.1 (Joules/Mol)
                                   13.32077 (Kcal/Mol)
 Vibrational temperatures:   2358.08  5455.83  5592.64
          (Kelvin)
 
 Zero-point correction=                           0.021228 (Hartree/Particle)
 Thermal correction to Energy=                    0.024063
 Thermal correction to Enthalpy=                  0.025007
 Thermal correction to Gibbs Free Energy=         0.003565
 Sum of electronic and zero-point Energies=            -76.337662
 Sum of electronic and thermal Energies=               -76.334826
 Sum of electronic and thermal Enthalpies=             -76.333882
 Sum of electronic and thermal Free Energies=          -76.355325
 
                     E (Thermal)             CV                S
                      KCal/Mol        Cal/Mol-Kelvin    Cal/Mol-Kelvin
 Total                   15.100              6.007             45.130
 Electronic               0.000              0.000              0.000
 Translational            0.889              2.981             34.608
 Rotational               0.889              2.981             10.515
 Vibrational             13.322              0.046              0.007
                       Q            Log10(Q)             Ln(Q)
 Total Bot       0.229276D-01         -1.639641         -3.775414
 Total V=0       0.133215D+09          8.124554         18.707477
 Vib (Bot)       0.172173D-09         -9.764036        -22.482524
 Vib (V=0)       0.100037D+01          0.000160          0.000367
 Electronic      0.100000D+01          0.000000          0.000000
 Translational   0.300431D+07          6.477745         14.915559
 Rotational      0.443251D+02          1.646650          3.791551
 
                                                                water
                                                             IR Spectrum
 
     3   3                                                                     1                                                     
     8   7                                                                     6                                                     
     8   9                                                                     3                                                     
     7   2                                                                     9                                                     
 
     X   X                                                                     X                                                     
     X   X                                                                     X                                                     
     X                                                                         X                                                     
     X                                                                         X                                                     
     X                                                                         X                                                     
     X                                                                         X                                                     
     X                                                                         X                                                     
     X                                                                         X                                                     
     X                                                                         X                                                     
     X                                                                         X                                                     
                                                                               X                                                     
                                                                               X                                                     
                                                                               X                                                     
                                                                               X                                                     
                                                                               X                                                     
                                                                               X                                                     
                                                                               X                                                     
                                                                               X                                                     
                                                                               X                                                     
                                                                               X                                                     
 
 ***** Axes restored to original set *****
 -------------------------------------------------------------------
 Center     Atomic                   Forces (Hartrees/Bohr)
 Number     Number              X              Y              Z
 -------------------------------------------------------------------
      1        8          -0.000000000    0.000016938    0.000000000
      2        1           0.000005921   -0.000008469    0.000000000
      3        1          -0.000005921   -0.000008469   -0.000000000
 -------------------------------------------------------------------
 Cartesian Forces:  Max     0.000016938 RMS     0.000007457
 Z-matrix is all fixed cartesians, so copy forces.
 Force constants in Cartesian coordinates: 
                1             2             3             4             5 
      1  0.656105D+00
      2  0.000000D+00  0.457921D+00
      3  0.000000D+00  0.000000D+00  0.104975D-04
      4 -0.328053D+00  0.200242D+00  0.000000D+00  0.360553D+00
      5  0.260508D+00 -0.228961D+00  0.000000D+00 -0.230375D+00  0.217919D+00
      6  0.000000D+00  0.000000D+00 -0.524874D-05  0.000000D+00  0.000000D+00
      7 -0.328053D+00 -0.200242D+00  0.000000D+00 -0.325002D-01 -0.301329D-01
      8 -0.260508D+00 -0.228961D+00  0.000000D+00  0.301329D-01  0.110422D-01
      9  0.000000D+00  0.000000D+00 -0.524874D-05  0.000000D+00  0.000000D+00
                6             7             8             9 
      6  0.736053D-05
      7  0.000000D+00  0.360553D+00
      8  0.000000D+00  0.230375D+00  0.217919D+00
      9 -0.211179D-05  0.000000D+00  0.000000D+00  0.736053D-05
 Leave Link  716 at Mon Mar 24 13:56:36 2025, MaxMem=   104857600 cpu:               0.0 elap:               0.0
 (Enter /opt/software/gaussian/g16.c01/l103.exe)

 GradGradGradGradGradGradGradGradGradGradGradGradGradGradGradGradGradGrad
 Berny optimization.
 Search for a local minimum.
 Step number   1 out of a maximum of    2
 All quantities printed in internal units (Hartrees-Bohrs-Radians)
 Second derivative matrix not updated -- analytic derivatives used.
 The second derivative matrix:
                          X1        Y1        Z1        X2        Y2
           X1           0.65611
           Y1           0.00000   0.45792
           Z1          -0.00000  -0.00000   0.00001
           X2          -0.32805   0.20024   0.00000   0.36055
           Y2           0.26051  -0.22896   0.00000  -0.23038   0.21792
           Z2           0.00000   0.00000  -0.00001  -0.00000  -0.00000
           X3          -0.32805  -0.20024   0.00000  -0.03250  -0.03013
           Y3          -0.26051  -0.22896   0.00000   0.03013   0.01104
           Z3           0.00000   0.00000  -0.00001  -0.00000   0.00000
                          Z2        X3        Y3        Z3
           Z2           0.00001
           X3          -0.00000   0.36055
           Y3          -0.00000   0.23038   0.21792
           Z3          -0.00000  -0.00000  -0.00000   0.00001
 ITU=  0
     Eigenvalues ---    0.14968   0.77716   0.95329
 Angle between quadratic step and forces=  45.06 degrees.
 ClnCor:  largest displacement from symmetrization is 6.59D-16 for atom     3.
 Linear search not attempted -- first point.
 ClnCor:  largest displacement from symmetrization is 9.86D-32 for atom     3.
 B after Tr=     0.000000    0.000011   -0.000000
         Rot=    1.000000    0.000000   -0.000000    0.000000 Ang=   0.00 deg.
 Variable       Old X    -DE/DX   Delta X   Delta X   Delta X     New X
                                 (Linear)    (Quad)   (Total)
    X1        0.00000  -0.00000   0.00000  -0.00000   0.00000   0.00000
    Y1        0.22721   0.00002   0.00000   0.00002   0.00003   0.22724
    Z1        0.00000   0.00000   0.00000   0.00000   0.00000   0.00000
    X2        1.43057   0.00001   0.00000  -0.00001  -0.00001   1.43056
    Y2       -0.90884  -0.00001   0.00000  -0.00003  -0.00001  -0.90885
    Z2        0.00000   0.00000   0.00000  -0.00000  -0.00000   0.00000
    X3       -1.43057  -0.00001   0.00000   0.00001   0.00001  -1.43056
    Y3       -0.90884  -0.00001   0.00000  -0.00003  -0.00001  -0.90885
    Z3       -0.00000  -0.00000   0.00000   0.00000   0.00000  -0.00000
         Item               Value     Threshold  Converged?
 Maximum Force            0.000017     0.000450     YES
 RMS     Force            0.000007     0.000300     YES
 Maximum Displacement     0.000029     0.001800     YES
 RMS     Displacement     0.000012     0.001200     YES
 Predicted change in Energy=-3.233838D-10
 Optimization completed.
    -- Stationary point found.
 GradGradGradGradGradGradGradGradGradGradGradGradGradGradGradGradGradGrad

 Leave Link  103 at Mon Mar 24 13:56:36 2025, MaxMem=   104857600 cpu:               0.0 elap:               0.0
 (Enter /opt/software/gaussian/g16.c01/l9999.exe)

 ----------------------------------------------------------------------

 Electric dipole moment (input orientation):
 (Debye = 10**-18 statcoulomb cm , SI units = C m)
                  (au)            (Debye)         (10**-30 SI)
   Tot        0.788652D+00      0.200455D+01      0.668647D+01
   x          0.000000D+00      0.000000D+00      0.000000D+00
   y         -0.788652D+00     -0.200455D+01     -0.668647D+01
   z          0.000000D+00      0.000000D+00      0.000000D+00

 Dipole polarizability, Alpha (input orientation).
 (esu units = cm**3 , SI units = C**2 m**2 J**-1)
 Alpha(0;0):
               (au)            (10**-24 esu)      (10**-40 SI)
   iso        0.530177D+01      0.785642D+00      0.874145D+00
   aniso      0.364663D+01      0.540375D+00      0.601249D+00
   xx         0.731299D+01      0.108367D+01      0.120575D+01
   yx         0.000000D+00      0.000000D+00      0.000000D+00
   yy         0.547891D+01      0.811891D+00      0.903351D+00
   zx         0.000000D+00      0.000000D+00      0.000000D+00
   zy         0.000000D+00      0.000000D+00      0.000000D+00
   zz         0.311342D+01      0.461361D+00      0.513333D+00

 ----------------------------------------------------------------------

 Dipole orientation:
     8          0.00000000         -0.00000000         -0.22720933
     1          1.43056992          0.00000000          0.90883732
     1         -1.43056992         -0.00000000          0.90883732

 Electric dipole moment (dipole orientation):
 (Debye = 10**-18 statcoulomb cm , SI units = C m)
                  (au)            (Debye)         (10**-30 SI)
   Tot        0.788652D+00      0.200455D+01      0.668647D+01
   x          0.000000D+00      0.000000D+00      0.000000D+00
   y          0.000000D+00      0.000000D+00      0.000000D+00
   z          0.788652D+00      0.200455D+01      0.668647D+01

 Dipole polarizability, Alpha (dipole orientation).
 (esu units = cm**3 , SI units = C**2 m**2 J**-1)
 Alpha(0;0):
               (au)            (10**-24 esu)      (10**-40 SI)
   iso        0.530177D+01      0.785642D+00      0.874145D+00
   aniso      0.364663D+01      0.540375D+00      0.601249D+00
   xx         0.731299D+01      0.108367D+01      0.120575D+01
   yx         0.000000D+00      0.000000D+00      0.000000D+00
   yy         0.311342D+01      0.461361D+00      0.513333D+00
   zx         0.000000D+00      0.000000D+00      0.000000D+00
   zy         0.000000D+00      0.000000D+00      0.000000D+00
   zz         0.547891D+01      0.811891D+00      0.903351D+00

 ----------------------------------------------------------------------
 Unable to Open any file for archive entry.
 1\1\GINC-GRA61\Freq\RB3LYP\def2SVP\H2O1\NROB\24-Mar-2025\0\\#P B3LYP/D
 ef2SVP EmpiricalDispersion=GD3BJ Freq\\water\\0,1\O,0.,0.120234,0.\H,0
 .757025,-0.480936,0.\H,-0.757025,-0.480936,0.\\Version=ES64L-G16RevC.0
 1\State=1-A1\HF=-76.3588897\RMSD=1.005e-09\RMSF=7.457e-06\ZeroPoint=0.
 021228\Thermal=0.0240633\ETot=-76.3348264\HTot=-76.3338822\GTot=-76.35
 5325\Dipole=0.,-0.7886522,0.\DipoleDeriv=-0.427541,0.,0.,0.,-0.3136842
 ,0.,0.,0.,-0.6942034,0.2137705,0.0593493,0.,0.1058815,0.1568421,0.,0.,
 0.,0.3471017,0.2137705,-0.0593493,0.,-0.1058815,0.1568421,0.,0.,0.,0.3
 471017\Polar=7.3129933,0.,5.4789144,0.,0.,3.113416\Quadrupole=1.049608
 ,-0.1285065,-0.9211015,0.,0.,0.\PG=C02V [C2(O1),SGV(H2)]\NImag=0\\0.65
 610524,0.,0.45792144,0.,0.,0.00001050,-0.32805262,0.20024232,0.,0.3605
 5278,0.26050810,-0.22896072,0.,-0.23037521,0.21791852,0.,0.,-0.0000052
 5,0.,0.,0.00000736,-0.32805262,-0.20024232,0.,-0.03250016,-0.03013289,
 0.,0.36055278,-0.26050810,-0.22896072,0.,0.03013289,0.01104220,0.,0.23
 037521,0.21791852,0.,0.,-0.00000525,0.,0.,-0.00000211,0.,0.,0.00000736
 \\0.,-0.00001694,0.,-0.00000592,0.00000847,0.,0.00000592,0.00000847,0.
 \\\@
 The archive entry for this job was punched.


 EDUCATION WITHOUT COMMON SENSE IS A LOAD OF BOOKS ON THE BACK OF AN ASS.
 Job cpu time:       0 days  0 hours  0 minutes  3.9 seconds.
 Elapsed time:       0 days  0 hours  0 minutes  3.4 seconds.
 File lengths (MBytes):  RWF=      6 Int=      0 D2E=      0 Chk=      1 Scr=      1
 Normal termination of Gaussian 16 at Mon Mar 24 13:56:36 2025.
